material_id,pretty_formula,formation_energy_per_atom,num_elements,elements,crystal_system,space_group_symbol,nsites,composition,num_halogens,num_unique_halogen_types
mp-1110879,K3ScCl6,-2.240673353124999,3,"[Element Cl, Element K, Element Sc]",Cubic,Fm-3m,10,K3 Sc1 Cl6,6.0,1
mp-1111079,K3ScF6,-3.526572962674998,3,"[Element F, Element K, Element Sc]",Cubic,Fm-3m,10,K3 Sc1 F6,6.0,1
mp-1111693,K3ScI6,-1.535936776674999,3,"[Element I, Element K, Element Sc]",Cubic,Fm-3m,10,K3 Sc1 I6,6.0,1
mp-1110878,K3SmCl6,-2.292235718125005,3,"[Element Cl, Element K, Element Sm]",Cubic,Fm-3m,10,K3 Sm1 Cl6,6.0,1
mp-1205731,K3SmF6,-3.478113902674999,3,"[Element F, Element K, Element Sm]",Cubic,Fm-3m,10,K3 Sm1 F6,6.0,1
mp-1111159,K3TaBr6,-1.555294005908332,3,"[Element Br, Element K, Element Ta]",Cubic,Fm-3m,10,K3 Ta1 Br6,6.0,1
mp-1111330,K3TaCl6,-1.886716292908332,3,"[Element Cl, Element K, Element Ta]",Cubic,Fm-3m,10,K3 Ta1 Cl6,6.0,1
mp-1110844,K3TaF6,-2.8935074489083332,3,"[Element F, Element K, Element Ta]",Cubic,Fm-3m,10,K3 Ta1 F6,6.0,1
mp-1111158,K3TaI6,-1.103151429908332,3,"[Element I, Element K, Element Ta]",Cubic,Fm-3m,10,K3 Ta1 I6,6.0,1
mp-1110877,K3TbCl6,-2.309309644624997,3,"[Element Cl, Element K, Element Tb]",Cubic,Fm-3m,10,K3 Tb1 Cl6,6.0,1
mp-1111692,K3TiF6,-3.266874859508333,3,"[Element F, Element K, Element Ti]",Cubic,Fm-3m,10,K3 Ti1 F6,6.0,1
mp-1111161,K3TlBr6,-1.496799403508333,3,"[Element Br, Element K, Element Tl]",Cubic,Fm-3m,10,K3 Tl1 Br6,6.0,1
mp-1111328,K3TlCl6,-1.762459037508333,3,"[Element Cl, Element K, Element Tl]",Cubic,Fm-3m,10,K3 Tl1 Cl6,6.0,1
mp-1111691,K3TlF6,-2.657620796508333,3,"[Element F, Element K, Element Tl]",Cubic,Fm-3m,10,K3 Tl1 F6,6.0,1
mp-1111318,K3TlI6,-1.099529568508333,3,"[Element I, Element K, Element Tl]",Cubic,Fm-3m,10,K3 Tl1 I6,6.0,1
mp-1110876,K3TmCl6,-2.3081295586249952,3,"[Element Cl, Element K, Element Tm]",Cubic,Fm-3m,10,K3 Tm1 Cl6,6.0,1
mp-1205844,K3TmF6,-3.5602813331750003,3,"[Element F, Element K, Element Tm]",Cubic,Fm-3m,10,K3 Tm1 F6,6.0,1
mp-1111308,K3VF6,-3.047231967175,3,"[Element F, Element K, Element V]",Cubic,Fm-3m,10,K3 V1 F6,6.0,1
mp-555403,K3WF6,-2.8451750771749973,3,"[Element F, Element K, Element W]",Cubic,Fm-3m,10,K3 W1 F6,6.0,1
mp-1110922,K3YBr6,-2.078634647175,3,"[Element Br, Element K, Element Y]",Cubic,Fm-3m,10,K3 Y1 Br6,6.0,1
mp-1110875,K3YCl6,-2.304717548625001,3,"[Element Cl, Element K, Element Y]",Cubic,Fm-3m,10,K3 Y1 Cl6,6.0,1
mp-1110843,K3YF6,-3.511177537175,3,"[Element F, Element K, Element Y]",Cubic,Fm-3m,10,K3 Y1 F6,6.0,1
mp-1110953,K3YI6,-1.598888931174999,3,"[Element I, Element K, Element Y]",Cubic,Fm-3m,10,K3 Y1 I6,6.0,1
mp-1205753,K3YbF6,-3.540339901625001,3,"[Element F, Element K, Element Yb]",Cubic,Fm-3m,10,K3 Yb1 F6,6.0,1
mp-1111019,KNa2AlF6,-3.2440640750008622,4,"[Element Al, Element F, Element K, Element Na]",Cubic,Fm-3m,10,K1 Na2 Al1 F6,6.0,1
mp-1111018,KNa2AsF6,-2.564639682750862,4,"[Element As, Element F, Element K, Element Na]",Cubic,Fm-3m,10,K1 Na2 As1 F6,6.0,1
mp-1111017,KNa2CoF6,-2.533209598000862,4,"[Element Co, Element F, Element K, Element Na]",Cubic,Fm-3m,10,K1 Na2 Co1 F6,6.0,1
mp-1111015,KNa2CrF6,-2.9014785230008613,4,"[Element Cr, Element F, Element K, Element Na]",Cubic,Fm-3m,10,K1 Na2 Cr1 F6,6.0,1
mp-1111014,KNa2FeF6,-2.696383594000862,4,"[Element F, Element Fe, Element K, Element Na]",Cubic,Fm-3m,10,K1 Na2 Fe1 F6,6.0,1
mp-1111013,KNa2GaF6,-2.869326611750861,4,"[Element F, Element Ga, Element K, Element Na]",Cubic,Fm-3m,10,K1 Na2 Ga1 F6,6.0,1
mp-1111012,KNa2IrF6,-2.321667562000861,4,"[Element F, Element Ir, Element K, Element Na]",Cubic,Fm-3m,10,K1 Na2 Ir1 F6,6.0,1
mp-1111011,KNa2MnF6,-2.721649505793965,4,"[Element F, Element K, Element Mn, Element Na]",Cubic,Fm-3m,10,K1 Na2 Mn1 F6,6.0,1
mp-1111010,KNa2MoF6,-2.7345319030008612,4,"[Element F, Element K, Element Mo, Element Na]",Cubic,Fm-3m,10,K1 Na2 Mo1 F6,6.0,1
mp-1111009,KNa2NbF6,-2.768514966000862,4,"[Element F, Element K, Element Na, Element Nb]",Cubic,Fm-3m,10,K1 Na2 Nb1 F6,6.0,1
mp-1111008,KNa2PdF6,-2.259310108000861,4,"[Element F, Element K, Element Na, Element Pd]",Cubic,Fm-3m,10,K1 Na2 Pd1 F6,6.0,1
mp-1111007,KNa2RhF6,-2.414702676000861,4,"[Element F, Element K, Element Na, Element Rh]",Cubic,Fm-3m,10,K1 Na2 Rh1 F6,6.0,1
mp-1111006,KNa2RuF6,-2.396515021000862,4,"[Element F, Element K, Element Na, Element Ru]",Cubic,Fm-3m,10,K1 Na2 Ru1 F6,6.0,1
mp-1111407,KNa2SbF6,-2.635762935000861,4,"[Element F, Element K, Element Na, Element Sb]",Cubic,Fm-3m,10,K1 Na2 Sb1 F6,6.0,1
mp-1111005,KNa2ScF6,-3.340794464500861,4,"[Element F, Element K, Element Na, Element Sc]",Cubic,Fm-3m,10,K1 Na2 Sc1 F6,6.0,1
mp-1111004,KNa2TaF6,-2.7521096497341953,4,"[Element F, Element K, Element Na, Element Ta]",Cubic,Fm-3m,10,K1 Na2 Ta1 F6,6.0,1
mp-1111003,KNa2TiF6,-3.087698711334195,4,"[Element F, Element K, Element Na, Element Ti]",Cubic,Fm-3m,10,K1 Na2 Ti1 F6,6.0,1
mp-1223317,KNaMg2F6,-3.48803732686293,4,"[Element F, Element K, Element Mg, Element Na]",Cubic,Fm-3m,10,K1 Na1 Mg2 F6,6.0,1
mp-1114046,KRb2AlBr6,-1.802056757225,4,"[Element Al, Element Br, Element K, Element Rb]",Cubic,Fm-3m,10,K1 Rb2 Al1 Br6,6.0,1
mp-1113984,KRb2AlCl6,-2.160005042224999,4,"[Element Al, Element Cl, Element K, Element Rb]",Cubic,Fm-3m,10,K1 Rb2 Al1 Cl6,6.0,1
mp-1113768,KRb2AlF6,-3.425986403225,4,"[Element Al, Element F, Element K, Element Rb]",Cubic,Fm-3m,10,K1 Rb2 Al1 F6,6.0,1
mp-1114183,KRb2AlI6,-1.314958142224999,4,"[Element Al, Element I, Element K, Element Rb]",Cubic,Fm-3m,10,K1 Rb2 Al1 I6,6.0,1
mp-1114124,KRb2AsBr6,-1.531015708975,4,"[Element As, Element Br, Element K, Element Rb]",Cubic,Fm-3m,10,K1 Rb2 As1 Br6,6.0,1
mp-1114043,KRb2AsCl6,-1.801930458975,4,"[Element As, Element Cl, Element K, Element Rb]",Cubic,Fm-3m,10,K1 Rb2 As1 Cl6,6.0,1
mp-1113892,KRb2AsF6,-2.781942948975,4,"[Element As, Element F, Element K, Element Rb]",Cubic,Fm-3m,10,K1 Rb2 As1 F6,6.0,1
mp-1114184,KRb2AsI6,-1.140727417975,4,"[Element As, Element I, Element K, Element Rb]",Cubic,Fm-3m,10,K1 Rb2 As1 I6,6.0,1
mp-1114125,KRb2AuBr6,-1.334208712225,4,"[Element Au, Element Br, Element K, Element Rb]",Cubic,Fm-3m,10,K1 Rb2 Au1 Br6,6.0,1
mp-1114398,KRb2AuCl6,-1.561162481225,4,"[Element Au, Element Cl, Element K, Element Rb]",Cubic,Fm-3m,10,K1 Rb2 Au1 Cl6,6.0,1
mp-1113893,KRb2AuF6,-2.3230942082249992,4,"[Element Au, Element F, Element K, Element Rb]",Cubic,Fm-3m,10,K1 Rb2 Au1 F6,6.0,1
mp-554941,KRb2BiF6,-2.898331616224999,4,"[Element Bi, Element F, Element K, Element Rb]",Cubic,Fm-3m,10,K1 Rb2 Bi1 F6,6.0,1
mp-560071,KRb2CoF6,-2.7180167332250003,4,"[Element Co, Element F, Element K, Element Rb]",Cubic,Fm-3m,10,K1 Rb2 Co1 F6,6.0,1
mp-556264,KRb2CrF6,-3.104713231225,4,"[Element Cr, Element F, Element K, Element Rb]",Cubic,Fm-3m,10,K1 Rb2 Cr1 F6,6.0,1
mp-1206427,KRb2CuF6,-2.5644642332250003,4,"[Element Cu, Element F, Element K, Element Rb]",Cubic,Fm-3m,10,K1 Rb2 Cu1 F6,6.0,1
mp-1114044,KRb2DyCl6,-2.466919112391666,4,"[Element Cl, Element Dy, Element K, Element Rb]",Cubic,Fm-3m,10,K1 Rb2 Dy1 Cl6,6.0,1
mp-1114041,KRb2ErCl6,-2.471317664225,4,"[Element Cl, Element Er, Element K, Element Rb]",Cubic,Fm-3m,10,K1 Rb2 Er1 Cl6,6.0,1
mp-1114042,KRb2EuCl6,-2.267908983725,4,"[Element Cl, Element Eu, Element K, Element Rb]",Cubic,Fm-3m,10,K1 Rb2 Eu1 Cl6,6.0,1
mp-561067,KRb2FeF6,-2.934297378224999,4,"[Element F, Element Fe, Element K, Element Rb]",Cubic,Fm-3m,10,K1 Rb2 Fe1 F6,6.0,1
mp-1114039,KRb2GaBr6,-1.657864739974999,4,"[Element Br, Element Ga, Element K, Element Rb]",Cubic,Fm-3m,10,K1 Rb2 Ga1 Br6,6.0,1
mp-1114040,KRb2GaCl6,-1.9732660529750001,4,"[Element Cl, Element Ga, Element K, Element Rb]",Cubic,Fm-3m,10,K1 Rb2 Ga1 Cl6,6.0,1
mp-13190,KRb2GaF6,-3.066574973975,4,"[Element F, Element Ga, Element K, Element Rb]",Cubic,Fm-3m,10,K1 Rb2 Ga1 F6,6.0,1
mp-1114181,KRb2GaI6,-1.212657048975,4,"[Element Ga, Element I, Element K, Element Rb]",Cubic,Fm-3m,10,K1 Rb2 Ga1 I6,6.0,1
mp-1114037,KRb2GdCl6,-2.459143542224999,4,"[Element Cl, Element Gd, Element K, Element Rb]",Cubic,Fm-3m,10,K1 Rb2 Gd1 Cl6,6.0,1
mp-1114122,KRb2InBr6,-1.696922905891666,4,"[Element Br, Element In, Element K, Element Rb]",Cubic,Fm-3m,10,K1 Rb2 In1 Br6,6.0,1
mp-989529,KRb2InCl6,-1.9947973678916662,4,"[Element Cl, Element In, Element K, Element Rb]",Cubic,Fm-3m,10,K1 Rb2 In1 Cl6,6.0,1
mp-1078205,KRb2InF6,-2.985904078891666,4,"[Element F, Element In, Element K, Element Rb]",Cubic,Fm-3m,10,K1 Rb2 In1 F6,6.0,1
mp-1114178,KRb2InI6,-1.2650520168916661,4,"[Element I, Element In, Element K, Element Rb]",Cubic,Fm-3m,10,K1 Rb2 In1 I6,6.0,1
mp-1113764,KRb2IrF6,-2.536821479225,4,"[Element F, Element Ir, Element K, Element Rb]",Cubic,Fm-3m,10,K1 Rb2 Ir1 F6,6.0,1
mp-1114123,KRb2LaCl6,-2.472246867725,4,"[Element Cl, Element K, Element La, Element Rb]",Cubic,Fm-3m,10,K1 Rb2 La1 Cl6,6.0,1
mp-1114035,KRb2LuCl6,-2.472833003891666,4,"[Element Cl, Element K, Element Lu, Element Rb]",Cubic,Fm-3m,10,K1 Rb2 Lu1 Cl6,6.0,1
mp-1113757,KRb2MnF6,-2.9262401500181032,4,"[Element F, Element K, Element Mn, Element Rb]",Cubic,Fm-3m,10,K1 Rb2 Mn1 F6,6.0,1
mp-554168,KRb2MoF6,-2.961774015224999,4,"[Element F, Element K, Element Mo, Element Rb]",Cubic,Fm-3m,10,K1 Rb2 Mo1 F6,6.0,1
mp-1113891,KRb2NbF6,-2.987359461224999,4,"[Element F, Element K, Element Nb, Element Rb]",Cubic,Fm-3m,10,K1 Rb2 Nb1 F6,6.0,1
mp-555464,KRb2NiF6,-2.595287777225,4,"[Element F, Element K, Element Ni, Element Rb]",Cubic,Fm-3m,10,K1 Rb2 Ni1 F6,6.0,1
mp-1113755,KRb2PdF6,-2.475685042225,4,"[Element F, Element K, Element Pd, Element Rb]",Cubic,Fm-3m,10,K1 Rb2 Pd1 F6,6.0,1
mp-14036,KRb2RhF6,-2.625337121225,4,"[Element F, Element K, Element Rb, Element Rh]",Cubic,Fm-3m,10,K1 Rb2 Rh1 F6,6.0,1
mp-1113753,KRb2RuF6,-2.609928074225,4,"[Element F, Element K, Element Rb, Element Ru]",Cubic,Fm-3m,10,K1 Rb2 Ru1 F6,6.0,1
mp-1114120,KRb2ScBr6,-2.068770993725,4,"[Element Br, Element K, Element Rb, Element Sc]",Cubic,Fm-3m,10,K1 Rb2 Sc1 Br6,6.0,1
mp-1114036,KRb2ScCl6,-2.409211286725,4,"[Element Cl, Element K, Element Rb, Element Sc]",Cubic,Fm-3m,10,K1 Rb2 Sc1 Cl6,6.0,1
mp-9349,KRb2ScF6,-3.5572896317250002,4,"[Element F, Element K, Element Rb, Element Sc]",Cubic,Fm-3m,10,K1 Rb2 Sc1 F6,6.0,1
mp-1110633,KRb2ScI6,-1.586508878724999,4,"[Element I, Element K, Element Rb, Element Sc]",Cubic,Fm-3m,10,K1 Rb2 Sc1 I6,6.0,1
mp-1114033,KRb2SmCl6,-2.450773727725,4,"[Element Cl, Element K, Element Rb, Element Sm]",Cubic,Fm-3m,10,K1 Rb2 Sm1 Cl6,6.0,1
mp-1114034,KRb2TbCl6,-2.4653886668916662,4,"[Element Cl, Element K, Element Rb, Element Tb]",Cubic,Fm-3m,10,K1 Rb2 Tb1 Cl6,6.0,1
mp-6074,KRb2TiF6,-3.298384584558333,4,"[Element F, Element K, Element Rb, Element Ti]",Cubic,Fm-3m,10,K1 Rb2 Ti1 F6,6.0,1
mp-1114121,KRb2TlBr6,-1.5463839205583332,4,"[Element Br, Element K, Element Rb, Element Tl]",Cubic,Fm-3m,10,K1 Rb2 Tl1 Br6,6.0,1
mp-1114031,KRb2TlCl6,-1.810011363558334,4,"[Element Cl, Element K, Element Rb, Element Tl]",Cubic,Fm-3m,10,K1 Rb2 Tl1 Cl6,6.0,1
mp-1113872,KRb2TlF6,-2.695476285558332,4,"[Element F, Element K, Element Rb, Element Tl]",Cubic,Fm-3m,10,K1 Rb2 Tl1 F6,6.0,1
mp-1114172,KRb2TlI6,-1.151498649558334,4,"[Element I, Element K, Element Rb, Element Tl]",Cubic,Fm-3m,10,K1 Rb2 Tl1 I6,6.0,1
mp-1114032,KRb2TmCl6,-2.472512341225,4,"[Element Cl, Element K, Element Rb, Element Tm]",Cubic,Fm-3m,10,K1 Rb2 Tm1 Cl6,6.0,1
mp-557411,KRb2VF6,-3.152215331225002,4,"[Element F, Element K, Element Rb, Element V]",Cubic,Fm-3m,10,K1 Rb2 V1 F6,6.0,1
mp-1205684,KScTl2F6,-3.130082330891667,4,"[Element F, Element K, Element Sc, Element Tl]",Cubic,Fm-3m,10,K1 Sc1 Tl2 F6,6.0,1
mp-1205672,KTl2CrF6,-2.677724281391668,4,"[Element Cr, Element F, Element K, Element Tl]",Cubic,Fm-3m,10,K1 Tl2 Cr1 F6,6.0,1
mp-1206641,KTl2GaF6,-2.640834894141668,4,"[Element F, Element Ga, Element K, Element Tl]",Cubic,Fm-3m,10,K1 Tl2 Ga1 F6,6.0,1
mp-560959,KTl2MoF6,-2.535024284391668,4,"[Element F, Element K, Element Mo, Element Tl]",Cubic,Fm-3m,10,K1 Tl2 Mo1 F6,6.0,1
mp-1111365,Li2AgAsF6,-2.099296565583333,4,"[Element Ag, Element As, Element F, Element Li]",Cubic,Fm-3m,10,Li2 Ag1 As1 F6,6.0,1
mp-1111366,Li2AlAgF6,-2.756073626722224,4,"[Element Ag, Element Al, Element F, Element Li]",Cubic,Fm-3m,10,Li2 Al1 Ag1 F6,6.0,1
mp-1111683,Li2AlCuF6,-2.7895916756666663,4,"[Element Al, Element Cu, Element F, Element Li]",Cubic,Fm-3m,10,Li2 Al1 Cu1 F6,6.0,1
mp-1111352,Li2AlHgF6,-2.647429631472228,4,"[Element Al, Element F, Element Hg, Element Li]",Cubic,Fm-3m,10,Li2 Al1 Hg1 F6,6.0,1
mp-1111099,Li2CoAgF6,-2.084272759833332,4,"[Element Ag, Element Co, Element F, Element Li]",Cubic,Fm-3m,10,Li2 Co1 Ag1 F6,6.0,1
mp-1111351,Li2CoHgF6,-1.9896839149166672,4,"[Element Co, Element F, Element Hg, Element Li]",Cubic,Fm-3m,10,Li2 Co1 Hg1 F6,6.0,1
mp-1111900,Li2CrCuF6,-2.470096772666667,4,"[Element Cr, Element Cu, Element F, Element Li]",Cubic,Fm-3m,10,Li2 Cr1 Cu1 F6,6.0,1
mp-1111360,Li2CuAsF6,-2.034172969583332,4,"[Element As, Element Cu, Element F, Element Li]",Cubic,Fm-3m,10,Li2 Cu1 As1 F6,6.0,1
mp-1111359,Li2CuAuF6,-1.849182262666666,4,"[Element Au, Element Cu, Element F, Element Li]",Cubic,Fm-3m,10,Li2 Cu1 Au1 F6,6.0,1
mp-1111113,Li2CuIrF6,-1.8714524266833332,4,"[Element Cu, Element F, Element Ir, Element Li]",Cubic,Fm-3m,10,Li2 Cu1 Ir1 F6,6.0,1
mp-1111143,Li2CuMoF6,-2.223153679333334,4,"[Element Cu, Element F, Element Li, Element Mo]",Cubic,Fm-3m,10,Li2 Cu1 Mo1 F6,6.0,1
mp-1111560,Li2CuNiF6,-2.247561114333334,4,"[Element Cu, Element F, Element Li, Element Ni]",Cubic,Fm-3m,10,Li2 Cu1 Ni1 F6,6.0,1
mp-1111120,Li2CuSbCl6,-1.000031961083333,4,"[Element Cl, Element Cu, Element Li, Element Sb]",Cubic,Fm-3m,10,Li2 Cu1 Sb1 Cl6,6.0,1
mp-1111097,Li2CuSbF6,-2.174301420666666,4,"[Element Cu, Element F, Element Li, Element Sb]",Cubic,Fm-3m,10,Li2 Cu1 Sb1 F6,6.0,1
mp-1111363,Li2FeAgF6,-2.234536440833333,4,"[Element Ag, Element F, Element Fe, Element Li]",Cubic,Fm-3m,10,Li2 Fe1 Ag1 F6,6.0,1
mp-1111554,Li2FeHgF6,-2.177076831916667,4,"[Element F, Element Fe, Element Hg, Element Li]",Cubic,Fm-3m,10,Li2 Fe1 Hg1 F6,6.0,1
mp-1111358,Li2GaCuF6,-2.395960645111111,4,"[Element Cu, Element F, Element Ga, Element Li]",Cubic,Fm-3m,10,Li2 Ga1 Cu1 F6,6.0,1
mp-1111123,Li2InCuCl6,-1.340914784333332,4,"[Element Cl, Element Cu, Element In, Element Li]",Cubic,Fm-3m,10,Li2 In1 Cu1 Cl6,6.0,1
mp-1111100,Li2InCuF6,-2.304409231333333,4,"[Element Cu, Element F, Element In, Element Li]",Cubic,Fm-3m,10,Li2 In1 Cu1 F6,6.0,1
mp-1111362,Li2MnAgF6,-2.307116700626436,4,"[Element Ag, Element F, Element Li, Element Mn]",Cubic,Fm-3m,10,Li2 Mn1 Ag1 F6,6.0,1
mp-1111263,Li2MnCuF6,-2.44417678745977,4,"[Element Cu, Element F, Element Li, Element Mn]",Cubic,Fm-3m,10,Li2 Mn1 Cu1 F6,6.0,1
mp-1111146,Li2NiAgF6,-2.021007083083335,4,"[Element Ag, Element F, Element Li, Element Ni]",Cubic,Fm-3m,10,Li2 Ni1 Ag1 F6,6.0,1
mp-1111262,Li2ScCuCl6,-1.5749229983333302,4,"[Element Cl, Element Cu, Element Li, Element Sc]",Cubic,Fm-3m,10,Li2 Sc1 Cu1 Cl6,6.0,1
mp-1111353,Li2ScCuF6,-2.858298592388879,4,"[Element Cu, Element F, Element Li, Element Sc]",Cubic,Fm-3m,10,Li2 Sc1 Cu1 F6,6.0,1
mp-1111291,Li3AlF6,-3.306112348,3,"[Element Al, Element F, Element Li]",Cubic,Fm-3m,10,Li3 Al1 F6,6.0,1
mp-1111074,Li3AsF6,-2.507031614749999,3,"[Element As, Element F, Element Li]",Cubic,Fm-3m,10,Li3 As1 F6,6.0,1
mp-1110580,Li3AuF6,-2.108157918,3,"[Element Au, Element F, Element Li]",Cubic,Fm-3m,10,Li3 Au1 F6,6.0,1
mp-1111290,Li3CoF6,-2.593125365999999,3,"[Element Co, Element F, Element Li]",Cubic,Fm-3m,10,Li3 Co1 F6,6.0,1
mp-1111688,Li3CrF6,-2.950934669999999,3,"[Element Cr, Element F, Element Li]",Cubic,Fm-3m,10,Li3 Cr1 F6,6.0,1
mp-1111076,Li3GaF6,-2.900951809166667,3,"[Element F, Element Ga, Element Li]",Cubic,Fm-3m,10,Li3 Ga1 F6,6.0,1
mp-1111288,Li3InCl6,-1.640453503666666,3,"[Element Cl, Element In, Element Li]",Cubic,Fm-3m,10,Li3 In1 Cl6,6.0,1
mp-1110579,Li3InF6,-2.779155728500001,3,"[Element F, Element In, Element Li]",Cubic,Fm-3m,10,Li3 In1 F6,6.0,1
mp-1111071,Li3IrF6,-2.324233675024999,3,"[Element F, Element Ir, Element Li]",Cubic,Fm-3m,10,Li3 Ir1 F6,6.0,1
mp-1111072,Li3MnF6,-2.775038926793103,3,"[Element F, Element Li, Element Mn]",Cubic,Fm-3m,10,Li3 Mn1 F6,6.0,1
mp-1111287,Li3MoF6,-2.687778699,3,"[Element F, Element Li, Element Mo]",Cubic,Fm-3m,10,Li3 Mo1 F6,6.0,1
mp-1110578,Li3NbF6,-2.750740539599999,3,"[Element F, Element Li, Element Nb]",Cubic,Fm-3m,10,Li3 Nb1 F6,6.0,1
mp-1111686,Li3NiF6,-2.4970728970000042,3,"[Element F, Element Li, Element Ni]",Cubic,Fm-3m,10,Li3 Ni1 F6,6.0,1
mp-1111069,Li3PdF6,-2.259064185624999,3,"[Element F, Element Li, Element Pd]",Cubic,Fm-3m,10,Li3 Pd1 F6,6.0,1
mp-1111070,Li3RhF6,-2.452329865999999,3,"[Element F, Element Li, Element Rh]",Cubic,Fm-3m,10,Li3 Rh1 F6,6.0,1
mp-1111685,Li3RuF6,-2.418111476374999,3,"[Element F, Element Li, Element Ru]",Cubic,Fm-3m,10,Li3 Ru1 F6,6.0,1
mp-1111149,Li3SbCl6,-1.2996153805000001,3,"[Element Cl, Element Li, Element Sb]",Cubic,Fm-3m,10,Li3 Sb1 Cl6,6.0,1
mp-1110577,Li3SbF6,-2.635886814,3,"[Element F, Element Li, Element Sb]",Cubic,Fm-3m,10,Li3 Sb1 F6,6.0,1
mp-1111284,Li3ScCl6,-1.90843642475,3,"[Element Cl, Element Li, Element Sc]",Cubic,Fm-3m,10,Li3 Sc1 Cl6,6.0,1
mp-1111282,Li3ScF6,-3.36327611233333,3,"[Element F, Element Li, Element Sc]",Cubic,Fm-3m,10,Li3 Sc1 F6,6.0,1
mp-1111281,Li3TaF6,-2.689071150640001,3,"[Element F, Element Li, Element Ta]",Cubic,Fm-3m,10,Li3 Ta1 F6,6.0,1
mp-1111280,Li3TiF6,-3.132109784333333,3,"[Element F, Element Li, Element Ti]",Cubic,Fm-3m,10,Li3 Ti1 F6,6.0,1
mp-1110576,Li3TlF6,-2.43361836425,3,"[Element F, Element Li, Element Tl]",Cubic,Fm-3m,10,Li3 Tl1 F6,6.0,1
mp-1111067,Li3VF6,-2.917081364,3,"[Element F, Element Li, Element V]",Cubic,Fm-3m,10,Li3 V1 F6,6.0,1
mp-1110575,Li3YF6,-3.346384613500001,3,"[Element F, Element Li, Element Y]",Cubic,Fm-3m,10,Li3 Y1 F6,6.0,1
mp-989577,LiTl2GaF6,-2.645941066750001,4,"[Element F, Element Ga, Element Li, Element Tl]",Cubic,Fm-3m,10,Li1 Tl2 Ga1 F6,6.0,1
mp-989512,LiTl2InCl6,-1.5736920236666672,4,"[Element Cl, Element In, Element Li, Element Tl]",Cubic,Fm-3m,10,Li1 Tl2 In1 Cl6,6.0,1
mp-989551,LiTl2InF6,-2.592978106666667,4,"[Element F, Element In, Element Li, Element Tl]",Cubic,Fm-3m,10,Li1 Tl2 In1 F6,6.0,1
mp-1111192,Na2AgAsBr6,-1.059481001192528,4,"[Element Ag, Element As, Element Br, Element Na]",Cubic,Fm-3m,10,Na2 Ag1 As1 Br6,6.0,1
mp-1111543,Na2AgAsCl6,-1.087198737499999,4,"[Element Ag, Element As, Element Cl, Element Na]",Cubic,Fm-3m,10,Na2 Ag1 As1 Cl6,6.0,1
mp-1111093,Na2AgAsF6,-2.230443554192528,4,"[Element Ag, Element As, Element F, Element Na]",Cubic,Fm-3m,10,Na2 Ag1 As1 F6,6.0,1
mp-1111187,Na2AgAuBr6,-0.9519464624425281,4,"[Element Ag, Element Au, Element Br, Element Na]",Cubic,Fm-3m,10,Na2 Ag1 Au1 Br6,6.0,1
mp-1111541,Na2AgAuCl6,-1.159400961442529,4,"[Element Ag, Element Au, Element Cl, Element Na]",Cubic,Fm-3m,10,Na2 Ag1 Au1 Cl6,6.0,1
mp-1111335,Na2AgAuF6,-1.7467587267000022,4,"[Element Ag, Element Au, Element F, Element Na]",Cubic,Fm-3m,10,Na2 Ag1 Au1 F6,6.0,1
mp-1111325,Na2AgIrF6,-1.9888569672083292,4,"[Element Ag, Element F, Element Ir, Element Na]",Cubic,Fm-3m,10,Na2 Ag1 Ir1 F6,6.0,1
mp-1111323,Na2AgMoF6,-2.418915739499999,4,"[Element Ag, Element F, Element Mo, Element Na]",Cubic,Fm-3m,10,Na2 Ag1 Mo1 F6,6.0,1
mp-1111321,Na2AgPdF6,-1.9113476919166712,4,"[Element Ag, Element F, Element Na, Element Pd]",Cubic,Fm-3m,10,Na2 Ag1 Pd1 F6,6.0,1
mp-1111320,Na2AgRhF6,-2.077397621442528,4,"[Element Ag, Element F, Element Na, Element Rh]",Cubic,Fm-3m,10,Na2 Ag1 Rh1 F6,6.0,1
mp-1111319,Na2AgRuF6,-2.115148350499999,4,"[Element Ag, Element F, Element Na, Element Ru]",Cubic,Fm-3m,10,Na2 Ag1 Ru1 F6,6.0,1
mp-1111538,Na2AgSbCl6,-1.165585368750001,4,"[Element Ag, Element Cl, Element Na, Element Sb]",Cubic,Fm-3m,10,Na2 Ag1 Sb1 Cl6,6.0,1
mp-1111317,Na2AgSbF6,-2.297960701442528,4,"[Element Ag, Element F, Element Na, Element Sb]",Cubic,Fm-3m,10,Na2 Ag1 Sb1 F6,6.0,1
mp-1111586,Na2AlAgBr6,-1.305377246442528,4,"[Element Ag, Element Al, Element Br, Element Na]",Cubic,Fm-3m,10,Na2 Al1 Ag1 Br6,6.0,1
mp-1111545,Na2AlAgCl6,-1.481905871500001,4,"[Element Ag, Element Al, Element Cl, Element Na]",Cubic,Fm-3m,10,Na2 Al1 Ag1 Cl6,6.0,1