material_id,pretty_formula,formation_energy_per_atom,num_elements,elements,crystal_system,space_group_symbol,nsites,composition,num_halogens,num_unique_halogen_types
mp-1120715,Ag3BiBr6,-0.49209170049999906,3,"[Element Ag, Element Bi, Element Br]",Cubic,Fm-3m,10,Ag3 Bi1 Br6,6.0,1
mp-1205591,AlAg3F6,-2.134454542500006,3,"[Element Ag, Element Al, Element F]",Cubic,Fm-3m,10,Al1 Ag3 F6,6.0,1
mp-1205935,FeAg3F6,-1.691775917499999,3,"[Element Ag, Element F, Element Fe]",Cubic,Fm-3m,10,Fe1 Ag3 F6,6.0,1
mp-1207208,GaAg3F6,-1.7344413669999992,3,"[Element Ag, Element F, Element Ga]",Cubic,Fm-3m,10,Ga1 Ag3 F6,6.0,1
mp-1079742,GeN2OF6,-0.208247814,4,"[Element F, Element Ge, Element N, Element O]",Cubic,Fm-3m,10,Ge1 N2 O1 F6,6.0,1
mp-1206163,InAg3F6,-1.6455546849999991,3,"[Element Ag, Element F, Element In]",Cubic,Fm-3m,10,In1 Ag3 F6,6.0,1
mp-1112001,K2AgAsBr6,-1.251376618366666,4,"[Element Ag, Element As, Element Br, Element K]",Cubic,Fm-3m,10,K2 Ag1 As1 Br6,6.0,1
mp-1112480,K2AgAsCl6,-1.501012421366666,4,"[Element Ag, Element As, Element Cl, Element K]",Cubic,Fm-3m,10,K2 Ag1 As1 Cl6,6.0,1
mp-1112290,K2AgAsF6,-2.406359153366666,4,"[Element Ag, Element As, Element F, Element K]",Cubic,Fm-3m,10,K2 Ag1 As1 F6,6.0,1
mp-1112101,K2AgAuBr6,-1.139873478616666,4,"[Element Ag, Element Au, Element Br, Element K]",Cubic,Fm-3m,10,K2 Ag1 Au1 Br6,6.0,1
mp-1112479,K2AgAuCl6,-1.343391598616666,4,"[Element Ag, Element Au, Element Cl, Element K]",Cubic,Fm-3m,10,K2 Ag1 Au1 Cl6,6.0,1
mp-1112289,K2AgAuF6,-2.007797548616666,4,"[Element Ag, Element Au, Element F, Element K]",Cubic,Fm-3m,10,K2 Ag1 Au1 F6,6.0,1
mp-1110921,K2AgBiBr6,-1.368099099616666,4,"[Element Ag, Element Bi, Element Br, Element K]",Cubic,Fm-3m,10,K2 Ag1 Bi1 Br6,6.0,1
mp-1110920,K2AgBiCl6,-1.6220751856166662,4,"[Element Ag, Element Bi, Element Cl, Element K]",Cubic,Fm-3m,10,K2 Ag1 Bi1 Cl6,6.0,1
mp-1110851,K2AgBiF6,-2.506700962616666,4,"[Element Ag, Element Bi, Element F, Element K]",Cubic,Fm-3m,10,K2 Ag1 Bi1 F6,6.0,1
mp-1110952,K2AgBiI6,-0.9916730286166661,4,"[Element Ag, Element Bi, Element I, Element K]",Cubic,Fm-3m,10,K2 Ag1 Bi1 I6,6.0,1
mp-1112282,K2AgIrF6,-2.145001022616666,4,"[Element Ag, Element F, Element Ir, Element K]",Cubic,Fm-3m,10,K2 Ag1 Ir1 F6,6.0,1
mp-1110917,K2AgMoBr6,-1.261947738616666,4,"[Element Ag, Element Br, Element K, Element Mo]",Cubic,Fm-3m,10,K2 Ag1 Mo1 Br6,6.0,1
mp-1110858,K2AgMoCl6,-1.406337978166679,4,"[Element Ag, Element Cl, Element K, Element Mo]",Cubic,Fm-3m,10,K2 Ag1 Mo1 Cl6,6.0,1
mp-1110842,K2AgMoF6,-2.563260360616666,4,"[Element Ag, Element F, Element K, Element Mo]",Cubic,Fm-3m,10,K2 Ag1 Mo1 F6,6.0,1
mp-1110951,K2AgMoI6,-0.8501904426166661,4,"[Element Ag, Element I, Element K, Element Mo]",Cubic,Fm-3m,10,K2 Ag1 Mo1 I6,6.0,1
mp-1112279,K2AgPdF6,-2.153241984616666,4,"[Element Ag, Element F, Element K, Element Pd]",Cubic,Fm-3m,10,K2 Ag1 Pd1 F6,6.0,1
mp-1111950,K2AgRhF6,-2.246720276616666,4,"[Element Ag, Element F, Element K, Element Rh]",Cubic,Fm-3m,10,K2 Ag1 Rh1 F6,6.0,1
mp-1112276,K2AgRuF6,-2.222506260616666,4,"[Element Ag, Element F, Element K, Element Ru]",Cubic,Fm-3m,10,K2 Ag1 Ru1 F6,6.0,1
mp-1110912,K2AgSbBr6,-1.322933582616666,4,"[Element Ag, Element Br, Element K, Element Sb]",Cubic,Fm-3m,10,K2 Ag1 Sb1 Br6,6.0,1
mp-1110873,K2AgSbCl6,-1.362271146750004,4,"[Element Ag, Element Cl, Element K, Element Sb]",Cubic,Fm-3m,10,K2 Ag1 Sb1 Cl6,6.0,1
mp-1110848,K2AgSbF6,-2.482672075616666,4,"[Element Ag, Element F, Element K, Element Sb]",Cubic,Fm-3m,10,K2 Ag1 Sb1 F6,6.0,1
mp-1110949,K2AgSbI6,-0.9529765906166661,4,"[Element Ag, Element I, Element K, Element Sb]",Cubic,Fm-3m,10,K2 Ag1 Sb1 I6,6.0,1
mp-1112104,K2AlAgBr6,-1.4915188606166652,4,"[Element Ag, Element Al, Element Br, Element K]",Cubic,Fm-3m,10,K2 Al1 Ag1 Br6,6.0,1
mp-1111973,K2AlAgCl6,-1.8324107956166662,4,"[Element Ag, Element Al, Element Cl, Element K]",Cubic,Fm-3m,10,K2 Al1 Ag1 Cl6,6.0,1
mp-1111949,K2AlAgF6,-3.045985775616666,4,"[Element Ag, Element Al, Element F, Element K]",Cubic,Fm-3m,10,K2 Al1 Ag1 F6,6.0,1
mp-1111999,K2AlAuBr6,-1.378608272449999,4,"[Element Al, Element Au, Element Br, Element K]",Cubic,Fm-3m,10,K2 Al1 Au1 Br6,6.0,1
mp-1112440,K2AlAuCl6,-1.695294581449999,4,"[Element Al, Element Au, Element Cl, Element K]",Cubic,Fm-3m,10,K2 Al1 Au1 Cl6,6.0,1
mp-1112269,K2AlAuF6,-2.853184825449999,4,"[Element Al, Element Au, Element F, Element K]",Cubic,Fm-3m,10,K2 Al1 Au1 F6,6.0,1
mp-1112438,K2AlAuI6,-0.9556192384500001,4,"[Element Al, Element Au, Element I, Element K]",Cubic,Fm-3m,10,K2 Al1 Au1 I6,6.0,1
mp-1112165,K2AlCuF6,-3.010690930449999,4,"[Element Al, Element Cu, Element F, Element K]",Cubic,Fm-3m,10,K2 Al1 Cu1 F6,6.0,1
mp-1112211,K2AlHgBr6,-1.4458031587,4,"[Element Al, Element Br, Element Hg, Element K]",Cubic,Fm-3m,10,K2 Al1 Hg1 Br6,6.0,1
mp-1112210,K2AlHgCl6,-1.7557812327,4,"[Element Al, Element Cl, Element Hg, Element K]",Cubic,Fm-3m,10,K2 Al1 Hg1 Cl6,6.0,1
mp-1112209,K2AlHgF6,-2.9501835187000003,4,"[Element Al, Element F, Element Hg, Element K]",Cubic,Fm-3m,10,K2 Al1 Hg1 F6,6.0,1
mp-1112191,K2AlInBr6,-1.5463761121166661,4,"[Element Al, Element Br, Element In, Element K]",Cubic,Fm-3m,10,K2 Al1 In1 Br6,6.0,1
mp-1112189,K2AlInCl6,-1.881075232116666,4,"[Element Al, Element Cl, Element In, Element K]",Cubic,Fm-3m,10,K2 Al1 In1 Cl6,6.0,1
mp-1112188,K2AlInF6,-3.134881021116666,4,"[Element Al, Element F, Element In, Element K]",Cubic,Fm-3m,10,K2 Al1 In1 F6,6.0,1
mp-1112023,K2AlInI6,-1.088126558116666,4,"[Element Al, Element I, Element In, Element K]",Cubic,Fm-3m,10,K2 Al1 In1 I6,6.0,1
mp-1111591,K2AlTlBr6,-1.581349104783334,4,"[Element Al, Element Br, Element K, Element Tl]",Cubic,Fm-3m,10,K2 Al1 Tl1 Br6,6.0,1
mp-1111590,K2AlTlCl6,-1.919734430783334,4,"[Element Al, Element Cl, Element K, Element Tl]",Cubic,Fm-3m,10,K2 Al1 Tl1 Cl6,6.0,1
mp-1111379,K2AlTlF6,-3.1662907387833332,4,"[Element Al, Element F, Element K, Element Tl]",Cubic,Fm-3m,10,K2 Al1 Tl1 F6,6.0,1
mp-1111199,K2AlTlI6,-1.117664807783334,4,"[Element Al, Element I, Element K, Element Tl]",Cubic,Fm-3m,10,K2 Al1 Tl1 I6,6.0,1
mp-1112435,K2AsAuBr6,-1.165906745199999,4,"[Element As, Element Au, Element Br, Element K]",Cubic,Fm-3m,10,K2 As1 Au1 Br6,6.0,1
mp-1112434,K2AsAuCl6,-1.3907846072,4,"[Element As, Element Au, Element Cl, Element K]",Cubic,Fm-3m,10,K2 As1 Au1 Cl6,6.0,1
mp-1112267,K2AsAuF6,-2.230307611199999,4,"[Element As, Element Au, Element F, Element K]",Cubic,Fm-3m,10,K2 As1 Au1 F6,6.0,1
mp-1112432,K2AsAuI6,-0.8351918832,4,"[Element As, Element Au, Element I, Element K]",Cubic,Fm-3m,10,K2 As1 Au1 I6,6.0,1
mp-1111995,K2BiAuBr6,-1.27118850945,4,"[Element Au, Element Bi, Element Br, Element K]",Cubic,Fm-3m,10,K2 Bi1 Au1 Br6,6.0,1
mp-1112073,K2BiAuCl6,-1.50171681745,4,"[Element Au, Element Bi, Element Cl, Element K]",Cubic,Fm-3m,10,K2 Bi1 Au1 Cl6,6.0,1
mp-1112330,K2BiAuF6,-2.325779534449999,4,"[Element Au, Element Bi, Element F, Element K]",Cubic,Fm-3m,10,K2 Bi1 Au1 F6,6.0,1
mp-1110919,K2CeAgBr6,-1.795749157616665,4,"[Element Ag, Element Br, Element Ce, Element K]",Cubic,Fm-3m,10,K2 Ce1 Ag1 Br6,6.0,1
mp-1110918,K2CeAgCl6,-2.097444214616666,4,"[Element Ag, Element Ce, Element Cl, Element K]",Cubic,Fm-3m,10,K2 Ce1 Ag1 Cl6,6.0,1
mp-1112321,CsK2GaCl6,-1.8865921271655162,4,"[Element Cl, Element Cs, Element Ga, Element K]",Cubic,Fm-3m,10,Cs1 K2 Ga1 Cl6,6.0,1
mp-1112316,CsK2GaF6,-2.956793016165517,4,"[Element Cs, Element F, Element Ga, Element K]",Cubic,Fm-3m,10,Cs1 K2 Ga1 F6,6.0,1
mp-1112318,CsK2InCl6,-1.904217944082184,4,"[Element Cl, Element Cs, Element In, Element K]",Cubic,Fm-3m,10,Cs1 K2 In1 Cl6,6.0,1
mp-1112317,CsK2InF6,-2.871217322082183,4,"[Element Cs, Element F, Element In, Element K]",Cubic,Fm-3m,10,Cs1 K2 In1 F6,6.0,1
mp-1112315,CsK2IrF6,-2.424780316415517,4,"[Element Cs, Element F, Element Ir, Element K]",Cubic,Fm-3m,10,Cs1 K2 Ir1 F6,6.0,1
mp-1112308,CsK2MoF6,-2.842407379415517,4,"[Element Cs, Element F, Element K, Element Mo]",Cubic,Fm-3m,10,Cs1 K2 Mo1 F6,6.0,1
mp-1111974,CsK2NbF6,-2.8702571534155172,4,"[Element Cs, Element F, Element K, Element Nb]",Cubic,Fm-3m,10,Cs1 K2 Nb1 F6,6.0,1
mp-1112304,CsK2PdF6,-2.369593586415517,4,"[Element Cs, Element F, Element K, Element Pd]",Cubic,Fm-3m,10,Cs1 K2 Pd1 F6,6.0,1
mp-1112313,CsK2RuF6,-2.496697623415516,4,"[Element Cs, Element F, Element K, Element Ru]",Cubic,Fm-3m,10,Cs1 K2 Ru1 F6,6.0,1
mp-1112055,CsK2SbCl6,-1.790849352415517,4,"[Element Cl, Element Cs, Element K, Element Sb]",Cubic,Fm-3m,10,Cs1 K2 Sb1 Cl6,6.0,1
mp-1112270,CsK2SbF6,-2.751660770415517,4,"[Element Cs, Element F, Element K, Element Sb]",Cubic,Fm-3m,10,Cs1 K2 Sb1 F6,6.0,1
mp-1112309,CsK2ScCl6,-2.313783583915517,4,"[Element Cl, Element Cs, Element K, Element Sc]",Cubic,Fm-3m,10,Cs1 K2 Sc1 Cl6,6.0,1
mp-1110639,CsK2ScF6,-3.441292583915518,4,"[Element Cs, Element F, Element K, Element Sc]",Cubic,Fm-3m,10,Cs1 K2 Sc1 F6,6.0,1
mp-1112268,CsK2TaF6,-2.83214702514885,4,"[Element Cs, Element F, Element K, Element Ta]",Cubic,Fm-3m,10,Cs1 K2 Ta1 F6,6.0,1
mp-1112052,CsK2TiF6,-3.18084495174885,4,"[Element Cs, Element F, Element K, Element Ti]",Cubic,Fm-3m,10,Cs1 K2 Ti1 F6,6.0,1
mp-1111971,CsK2TlF6,-2.5809360017488503,4,"[Element Cs, Element F, Element K, Element Tl]",Cubic,Fm-3m,10,Cs1 K2 Tl1 F6,6.0,1
mp-1112254,CsK2VF6,-2.958520357415517,4,"[Element Cs, Element F, Element K, Element V]",Cubic,Fm-3m,10,Cs1 K2 V1 F6,6.0,1
mp-1112240,CsK2YF6,-3.432307082415517,4,"[Element Cs, Element F, Element K, Element Y]",Cubic,Fm-3m,10,Cs1 K2 Y1 F6,6.0,1
mp-1111785,CsRb2AlBr6,-1.7746722194655171,4,"[Element Al, Element Br, Element Cs, Element Rb]",Cubic,Fm-3m,10,Cs1 Rb2 Al1 Br6,6.0,1
mp-1111710,CsRb2AlCl6,-2.120574464465517,4,"[Element Al, Element Cl, Element Cs, Element Rb]",Cubic,Fm-3m,10,Cs1 Rb2 Al1 Cl6,6.0,1
mp-1111045,CsRb2AlF6,-3.354795068465518,4,"[Element Al, Element Cs, Element F, Element Rb]",Cubic,Fm-3m,10,Cs1 Rb2 Al1 F6,6.0,1
mp-1111837,CsRb2AlI6,-1.300768406465517,4,"[Element Al, Element Cs, Element I, Element Rb]",Cubic,Fm-3m,10,Cs1 Rb2 Al1 I6,6.0,1
mp-1111784,CsRb2AsBr6,-1.5041736932155172,4,"[Element As, Element Br, Element Cs, Element Rb]",Cubic,Fm-3m,10,Cs1 Rb2 As1 Br6,6.0,1
mp-1111709,CsRb2AsCl6,-1.763419437215517,4,"[Element As, Element Cl, Element Cs, Element Rb]",Cubic,Fm-3m,10,Cs1 Rb2 As1 Cl6,6.0,1
mp-1111463,CsRb2AsF6,-2.712054949215517,4,"[Element As, Element Cs, Element F, Element Rb]",Cubic,Fm-3m,10,Cs1 Rb2 As1 F6,6.0,1
mp-1111832,CsRb2AsI6,-1.125804938215517,4,"[Element As, Element Cs, Element I, Element Rb]",Cubic,Fm-3m,10,Cs1 Rb2 As1 I6,6.0,1
mp-1111783,CsRb2AuBr6,-1.310372627465517,4,"[Element Au, Element Br, Element Cs, Element Rb]",Cubic,Fm-3m,10,Cs1 Rb2 Au1 Br6,6.0,1
mp-1113412,CsRb2AuCl6,-1.526740434465517,4,"[Element Au, Element Cl, Element Cs, Element Rb]",Cubic,Fm-3m,10,Cs1 Rb2 Au1 Cl6,6.0,1
mp-1111462,CsRb2AuF6,-2.255948434465517,4,"[Element Au, Element Cs, Element F, Element Rb]",Cubic,Fm-3m,10,Cs1 Rb2 Au1 F6,6.0,1
mp-1111460,CsRb2BiF6,-2.832653291465517,4,"[Element Bi, Element Cs, Element F, Element Rb]",Cubic,Fm-3m,10,Cs1 Rb2 Bi1 F6,6.0,1
mp-1111397,CsRb2CoF6,-2.651282422465518,4,"[Element Co, Element Cs, Element F, Element Rb]",Cubic,Fm-3m,10,Cs1 Rb2 Co1 F6,6.0,1
mp-1113428,CsRb2DyCl6,-2.423644735632183,4,"[Element Cl, Element Cs, Element Dy, Element Rb]",Cubic,Fm-3m,10,Cs1 Rb2 Dy1 Cl6,6.0,1
mp-1111782,CsRb2ErCl6,-2.427862759465517,4,"[Element Cl, Element Cs, Element Er, Element Rb]",Cubic,Fm-3m,10,Cs1 Rb2 Er1 Cl6,6.0,1
mp-1111396,CsRb2FeF6,-2.832430517465517,4,"[Element Cs, Element F, Element Fe, Element Rb]",Cubic,Fm-3m,10,Cs1 Rb2 Fe1 F6,6.0,1
mp-1111781,CsRb2GaBr6,-1.631824409215517,4,"[Element Br, Element Cs, Element Ga, Element Rb]",Cubic,Fm-3m,10,Cs1 Rb2 Ga1 Br6,6.0,1
mp-1111708,CsRb2GaCl6,-1.935375905215517,4,"[Element Cl, Element Cs, Element Ga, Element Rb]",Cubic,Fm-3m,10,Cs1 Rb2 Ga1 Cl6,6.0,1
mp-989629,CsRb2GaF6,-2.9955569472155172,4,"[Element Cs, Element F, Element Ga, Element Rb]",Cubic,Fm-3m,10,Cs1 Rb2 Ga1 F6,6.0,1
mp-1111039,CsRb2GaI6,-1.199179196215517,4,"[Element Cs, Element Ga, Element I, Element Rb]",Cubic,Fm-3m,10,Cs1 Rb2 Ga1 I6,6.0,1
mp-1111780,CsRb2GdCl6,-2.416271157465517,4,"[Element Cl, Element Cs, Element Gd, Element Rb]",Cubic,Fm-3m,10,Cs1 Rb2 Gd1 Cl6,6.0,1
mp-1111779,CsRb2InBr6,-1.669765428132183,4,"[Element Br, Element Cs, Element In, Element Rb]",Cubic,Fm-3m,10,Cs1 Rb2 In1 Br6,6.0,1
mp-1113607,CsRb2InCl6,-1.955962466132183,4,"[Element Cl, Element Cs, Element In, Element Rb]",Cubic,Fm-3m,10,Cs1 Rb2 In1 Cl6,6.0,1
mp-989595,CsRb2InF6,-2.916283768132184,4,"[Element Cs, Element F, Element In, Element Rb]",Cubic,Fm-3m,10,Cs1 Rb2 In1 F6,6.0,1
mp-1111394,CsRb2IrF6,-2.467385547465517,4,"[Element Cs, Element F, Element Ir, Element Rb]",Cubic,Fm-3m,10,Cs1 Rb2 Ir1 F6,6.0,1
mp-1111778,CsRb2LuCl6,-2.429132134132184,4,"[Element Cl, Element Cs, Element Lu, Element Rb]",Cubic,Fm-3m,10,Cs1 Rb2 Lu1 Cl6,6.0,1
mp-1111457,CsRb2MoF6,-2.887734068465517,4,"[Element Cs, Element F, Element Mo, Element Rb]",Cubic,Fm-3m,10,Cs1 Rb2 Mo1 F6,6.0,1
mp-1111043,CsRb2NbF6,-2.915322040465517,4,"[Element Cs, Element F, Element Nb, Element Rb]",Cubic,Fm-3m,10,Cs1 Rb2 Nb1 F6,6.0,1
mp-1111455,CsRb2PdF6,-2.412090709465516,4,"[Element Cs, Element F, Element Pd, Element Rb]",Cubic,Fm-3m,10,Cs1 Rb2 Pd1 F6,6.0,1
mp-1111393,CsRb2RhF6,-2.557088107465516,4,"[Element Cs, Element F, Element Rb, Element Rh]",Cubic,Fm-3m,10,Cs1 Rb2 Rh1 F6,6.0,1
mp-1111777,CsRb2SbCl6,-1.844532827465517,4,"[Element Cl, Element Cs, Element Rb, Element Sb]",Cubic,Fm-3m,10,Cs1 Rb2 Sb1 Cl6,6.0,1
mp-1111454,CsRb2SbF6,-2.798610963465517,4,"[Element Cs, Element F, Element Rb, Element Sb]",Cubic,Fm-3m,10,Cs1 Rb2 Sb1 F6,6.0,1
mp-1111776,CsRb2ScBr6,-2.036122084965517,4,"[Element Br, Element Cs, Element Rb, Element Sc]",Cubic,Fm-3m,10,Cs1 Rb2 Sc1 Br6,6.0,1
mp-1111707,CsRb2ScCl6,-2.365392163965517,4,"[Element Cl, Element Cs, Element Rb, Element Sc]",Cubic,Fm-3m,10,Cs1 Rb2 Sc1 Cl6,6.0,1
mp-1111453,CsRb2ScF6,-3.484884353965517,4,"[Element Cs, Element F, Element Rb, Element Sc]",Cubic,Fm-3m,10,Cs1 Rb2 Sc1 F6,6.0,1
mp-1111452,CsRb2TaF6,-2.86556561319885,4,"[Element Cs, Element F, Element Rb, Element Ta]",Cubic,Fm-3m,10,Cs1 Rb2 Ta1 F6,6.0,1
mp-1110815,CsRb2TbCl6,-2.422234976132183,4,"[Element Cl, Element Cs, Element Rb, Element Tb]",Cubic,Fm-3m,10,Cs1 Rb2 Tb1 Cl6,6.0,1
mp-1111392,CsRb2TiF6,-3.222323495798851,4,"[Element Cs, Element F, Element Rb, Element Ti]",Cubic,Fm-3m,10,Cs1 Rb2 Ti1 F6,6.0,1
mp-1111830,CsRb2TlBr6,-1.520958602798851,4,"[Element Br, Element Cs, Element Rb, Element Tl]",Cubic,Fm-3m,10,Cs1 Rb2 Tl1 Br6,6.0,1
mp-1111451,CsRb2TlF6,-2.628411509798851,4,"[Element Cs, Element F, Element Rb, Element Tl]",Cubic,Fm-3m,10,Cs1 Rb2 Tl1 F6,6.0,1
mp-1110814,CsRb2TmCl6,-2.4289428404655182,4,"[Element Cl, Element Cs, Element Rb, Element Tm]",Cubic,Fm-3m,10,Cs1 Rb2 Tm1 Cl6,6.0,1
mp-1111390,CsRb2VF6,-2.999623885465518,4,"[Element Cs, Element F, Element Rb, Element V]",Cubic,Fm-3m,10,Cs1 Rb2 V1 F6,6.0,1
mp-1113330,CsRb2YBr6,-2.096308063465517,4,"[Element Br, Element Cs, Element Rb, Element Y]",Cubic,Fm-3m,10,Cs1 Rb2 Y1 Br6,6.0,1
mp-1113327,CsRb2YCl6,-2.418319629465517,4,"[Element Cl, Element Cs, Element Rb, Element Y]",Cubic,Fm-3m,10,Cs1 Rb2 Y1 Cl6,6.0,1
mp-1113328,CsRb2YF6,-3.480309745465517,4,"[Element Cs, Element F, Element Rb, Element Y]",Cubic,Fm-3m,10,Cs1 Rb2 Y1 F6,6.0,1
mp-1206806,CrAg3F6,-1.861633889499999,3,"[Element Ag, Element Cr, Element F]",Cubic,Fm-3m,10,Cr1 Ag3 F6,6.0,1
mp-1113578,Cs2AgAsBr6,-1.322267520847702,4,"[Element Ag, Element As, Element Br, Element Cs]",Cubic,Fm-3m,10,Cs2 Ag1 As1 Br6,6.0,1
mp-1113543,Cs2AgAsCl6,-1.5611243658477,4,"[Element Ag, Element As, Element Cl, Element Cs]",Cubic,Fm-3m,10,Cs2 Ag1 As1 Cl6,6.0,1
mp-1114305,Cs2AgAsF6,-2.433482206847701,4,"[Element Ag, Element As, Element Cs, Element F]",Cubic,Fm-3m,10,Cs2 Ag1 As1 F6,6.0,1
mp-1113575,Cs2AgAuBr6,-1.203201411097701,4,"[Element Ag, Element Au, Element Br, Element Cs]",Cubic,Fm-3m,10,Cs2 Ag1 Au1 Br6,6.0,1
mp-568448,Cs2AgAuCl6,-1.393409239097701,4,"[Element Ag, Element Au, Element Cl, Element Cs]",Cubic,Fm-3m,10,Cs2 Ag1 Au1 Cl6,6.0,1
mp-1113576,Cs2AgAuF6,-1.948868648333331,4,"[Element Ag, Element Au, Element Cs, Element F]",Cubic,Fm-3m,10,Cs2 Ag1 Au1 F6,6.0,1
mp-1078250,Cs2AgBiBr6,-1.456030710097701,4,"[Element Ag, Element Bi, Element Br, Element Cs]",Cubic,Fm-3m,10,Cs2 Ag1 Bi1 Br6,6.0,1
mp-1120775,Cs2AgBiBr6,-0.30408306009770103,4,"[Element Ag, Element Bi, Element Br, Element Cs]",Cubic,Fm-3m,10,Cs2 Ag1 Bi1 Br6,6.0,1
mp-1078258,Cs2AgBiCl6,-1.510083130500001,4,"[Element Ag, Element Bi, Element Cl, Element Cs]",Cubic,Fm-3m,10,Cs2 Ag1 Bi1 Cl6,6.0,1
mp-1114309,Cs2AgBiF6,-2.471992757000001,4,"[Element Ag, Element Bi, Element Cs, Element F]",Cubic,Fm-3m,10,Cs2 Ag1 Bi1 F6,6.0,1
mp-1113264,Cs2AgBiI6,-1.086875971097701,4,"[Element Ag, Element Bi, Element Cs, Element I]",Cubic,Fm-3m,10,Cs2 Ag1 Bi1 I6,6.0,1
mp-1113622,Cs2AgIrF6,-2.091066187666678,4,"[Element Ag, Element Cs, Element F, Element Ir]",Cubic,Fm-3m,10,Cs2 Ag1 Ir1 F6,6.0,1
mp-1113243,Cs2AgMoBr6,-1.330556895097701,4,"[Element Ag, Element Br, Element Cs, Element Mo]",Cubic,Fm-3m,10,Cs2 Ag1 Mo1 Br6,6.0,1
mp-1113232,Cs2AgMoCl6,-1.454606304166665,4,"[Element Ag, Element Cl, Element Cs, Element Mo]",Cubic,Fm-3m,10,Cs2 Ag1 Mo1 Cl6,6.0,1
mp-1113226,Cs2AgMoF6,-2.602620705097701,4,"[Element Ag, Element Cs, Element F, Element Mo]",Cubic,Fm-3m,10,Cs2 Ag1 Mo1 F6,6.0,1
mp-1112943,Cs2AgSbBr6,-1.4068146840977,4,"[Element Ag, Element Br, Element Cs, Element Sb]",Cubic,Fm-3m,10,Cs2 Ag1 Sb1 Br6,6.0,1
mp-1112940,Cs2AgSbCl6,-1.651126571097701,4,"[Element Ag, Element Cl, Element Cs, Element Sb]",Cubic,Fm-3m,10,Cs2 Ag1 Sb1 Cl6,6.0,1
mp-1113227,Cs2AgSbF6,-2.529717503097701,4,"[Element Ag, Element Cs, Element F, Element Sb]",Cubic,Fm-3m,10,Cs2 Ag1 Sb1 F6,6.0,1
mp-1112941,Cs2AgSbI6,-1.044632548097701,4,"[Element Ag, Element Cs, Element I, Element Sb]",Cubic,Fm-3m,10,Cs2 Ag1 Sb1 I6,6.0,1
mp-1113577,Cs2AlAgBr6,-1.552463265097701,4,"[Element Ag, Element Al, Element Br, Element Cs]",Cubic,Fm-3m,10,Cs2 Al1 Ag1 Br6,6.0,1
mp-1113621,Cs2AlAgCl6,-1.7016005875000042,4,"[Element Ag, Element Al, Element Cl, Element Cs]",Cubic,Fm-3m,10,Cs2 Al1 Ag1 Cl6,6.0,1
mp-1113614,Cs2AlAgF6,-3.0340755550977,4,"[Element Ag, Element Al, Element Cs, Element F]",Cubic,Fm-3m,10,Cs2 Al1 Ag1 F6,6.0,1
mp-1113424,Cs2AlAuBr6,-1.439757383931034,4,"[Element Al, Element Au, Element Br, Element Cs]",Cubic,Fm-3m,10,Cs2 Al1 Au1 Br6,6.0,1
mp-1113220,Cs2AlAuCl6,-1.553849828750002,4,"[Element Al, Element Au, Element Cl, Element Cs]",Cubic,Fm-3m,10,Cs2 Al1 Au1 Cl6,6.0,1
mp-1113113,Cs2AlAuF6,-2.830555843222217,4,"[Element Al, Element Au, Element Cs, Element F]",Cubic,Fm-3m,10,Cs2 Al1 Au1 F6,6.0,1
mp-1112932,Cs2AlAuI6,-1.0337027559310341,4,"[Element Al, Element Au, Element Cs, Element I]",Cubic,Fm-3m,10,Cs2 Al1 Au1 I6,6.0,1
mp-1113187,Cs2AlCuCl6,-1.628220088374995,4,"[Element Al, Element Cl, Element Cs, Element Cu]",Cubic,Fm-3m,10,Cs2 Al1 Cu1 Cl6,6.0,1
mp-1112629,Cs2AlHgBr6,-1.522564671181035,4,"[Element Al, Element Br, Element Cs, Element Hg]",Cubic,Fm-3m,10,Cs2 Al1 Hg1 Br6,6.0,1
mp-1112616,Cs2AlHgCl6,-1.822616389181035,4,"[Element Al, Element Cl, Element Cs, Element Hg]",Cubic,Fm-3m,10,Cs2 Al1 Hg1 Cl6,6.0,1
mp-1113101,Cs2AlHgF6,-2.966533389181035,4,"[Element Al, Element Cs, Element F, Element Hg]",Cubic,Fm-3m,10,Cs2 Al1 Hg1 F6,6.0,1
mp-1113281,Cs2AlInBr6,-1.632791347597701,4,"[Element Al, Element Br, Element Cs, Element In]",Cubic,Fm-3m,10,Cs2 Al1 In1 Br6,6.0,1
mp-1113280,Cs2AlInCl6,-1.7911140397500032,4,"[Element Al, Element Cl, Element Cs, Element In]",Cubic,Fm-3m,10,Cs2 Al1 In1 Cl6,6.0,1
mp-1112586,Cs2AlInF6,-3.154129284048613,4,"[Element Al, Element Cs, Element F, Element In]",Cubic,Fm-3m,10,Cs2 Al1 In1 F6,6.0,1
mp-1112896,Cs2AlInI6,-1.182273860597701,4,"[Element Al, Element Cs, Element I, Element In]",Cubic,Fm-3m,10,Cs2 Al1 In1 I6,6.0,1
mp-1112506,Cs2AlTlBr6,-1.670507063264369,4,"[Element Al, Element Br, Element Cs, Element Tl]",Cubic,Fm-3m,10,Cs2 Al1 Tl1 Br6,6.0,1