material_id,pretty_formula,formation_energy_per_atom,num_elements,elements,crystal_system,space_group_symbol,nsites,composition,num_halogens,num_unique_halogen_types
mp-1111061,Na2YHgF6,-2.886115236750001,4,"[Element F, Element Hg, Element Na, Element Y]",Cubic,Fm-3m,10,Na2 Y1 Hg1 F6,6.0,1
mp-1111450,Na3AlCl6,-1.786026976999998,3,"[Element Al, Element Cl, Element Na]",Cubic,Fm-3m,10,Na3 Al1 Cl6,6.0,1
mp-1111945,Na3AlF6,-3.341237152,3,"[Element Al, Element F, Element Na]",Cubic,Fm-3m,10,Na3 Al1 F6,6.0,1
mp-1110799,Na3AsBr6,-1.277048042163792,3,"[Element As, Element Br, Element Na]",Cubic,Fm-3m,10,Na3 As1 Br6,6.0,1
mp-1111448,Na3AsCl6,-1.360027844999999,3,"[Element As, Element Cl, Element Na]",Cubic,Fm-3m,10,Na3 As1 Cl6,6.0,1
mp-1110574,Na3AsF6,-2.55475783375,3,"[Element As, Element F, Element Na]",Cubic,Fm-3m,10,Na3 As1 F6,6.0,1
mp-1111705,Na3AuBr6,-1.092238932413793,3,"[Element Au, Element Br, Element Na]",Cubic,Fm-3m,10,Na3 Au1 Br6,6.0,1
mp-1113311,Na3AuCl6,-1.321830939413793,3,"[Element Au, Element Cl, Element Na]",Cubic,Fm-3m,10,Na3 Au1 Cl6,6.0,1
mp-1110573,Na3AuF6,-2.098063612,3,"[Element Au, Element F, Element Na]",Cubic,Fm-3m,10,Na3 Au1 F6,6.0,1
mp-1110572,Na3BiF6,-2.670867923999999,3,"[Element Bi, Element F, Element Na]",Cubic,Fm-3m,10,Na3 Bi1 F6,6.0,1
mp-1111933,Na3CeCl6,-2.080858389999998,3,"[Element Ce, Element Cl, Element Na]",Cubic,Fm-3m,10,Na3 Ce1 Cl6,6.0,1
mp-1111934,Na3CoF6,-2.592922970413793,3,"[Element Co, Element F, Element Na]",Cubic,Fm-3m,10,Na3 Co1 F6,6.0,1
mp-1110571,Na3CrF6,-2.9769910734137923,3,"[Element Cr, Element F, Element Na]",Cubic,Fm-3m,10,Na3 Cr1 F6,6.0,1
mp-1111895,Na3DyCl6,-2.106217735500002,3,"[Element Cl, Element Dy, Element Na]",Cubic,Fm-3m,10,Na3 Dy1 Cl6,6.0,1
mp-1111896,Na3ErCl6,-2.10666803033333,3,"[Element Cl, Element Er, Element Na]",Cubic,Fm-3m,10,Na3 Er1 Cl6,6.0,1
mp-1110798,Na3GaBr6,-1.407966354163793,3,"[Element Br, Element Ga, Element Na]",Cubic,Fm-3m,10,Na3 Ga1 Br6,6.0,1
mp-1111445,Na3GaCl6,-1.745052478163793,3,"[Element Cl, Element Ga, Element Na]",Cubic,Fm-3m,10,Na3 Ga1 Cl6,6.0,1
mp-1110570,Na3GaF6,-2.9462004831637922,3,"[Element F, Element Ga, Element Na]",Cubic,Fm-3m,10,Na3 Ga1 F6,6.0,1
mp-1111894,Na3GdCl6,-2.082813576499995,3,"[Element Cl, Element Gd, Element Na]",Cubic,Fm-3m,10,Na3 Gd1 Cl6,6.0,1
mp-1111704,Na3InBr6,-1.437805189080459,3,"[Element Br, Element In, Element Na]",Cubic,Fm-3m,10,Na3 In1 Br6,6.0,1
mp-1110792,Na3InCl6,-1.6057071059999921,3,"[Element Cl, Element In, Element Na]",Cubic,Fm-3m,10,Na3 In1 Cl6,6.0,1
mp-1110569,Na3InF6,-2.814037027499999,3,"[Element F, Element In, Element Na]",Cubic,Fm-3m,10,Na3 In1 F6,6.0,1
mp-1110568,Na3IrF6,-2.333949917999999,3,"[Element F, Element Ir, Element Na]",Cubic,Fm-3m,10,Na3 Ir1 F6,6.0,1
mp-1111891,Na3LuCl6,-2.113121353666662,3,"[Element Cl, Element Lu, Element Na]",Cubic,Fm-3m,10,Na3 Lu1 Cl6,6.0,1
mp-1110567,Na3MoF6,-2.759792483250001,3,"[Element F, Element Mo, Element Na]",Cubic,Fm-3m,10,Na3 Mo1 F6,6.0,1
mp-1111888,Na3NbF6,-2.795437153374998,3,"[Element F, Element Na, Element Nb]",Cubic,Fm-3m,10,Na3 Nb1 F6,6.0,1
mp-1113503,Na3NdCl6,-2.086751978249999,3,"[Element Cl, Element Na, Element Nd]",Cubic,Fm-3m,10,Na3 Nd1 Cl6,6.0,1
mp-1113477,Na3NiF6,-2.524529541,3,"[Element F, Element Na, Element Ni]",Cubic,Fm-3m,10,Na3 Ni1 F6,6.0,1
mp-1114262,Na3PdF6,-2.283543096416668,3,"[Element F, Element Na, Element Pd]",Cubic,Fm-3m,10,Na3 Pd1 F6,6.0,1
mp-1111889,Na3PrCl6,-2.077921803166664,3,"[Element Cl, Element Na, Element Pr]",Cubic,Fm-3m,10,Na3 Pr1 Cl6,6.0,1
mp-1114259,Na3RhF6,-2.460931077,3,"[Element F, Element Na, Element Rh]",Cubic,Fm-3m,10,Na3 Rh1 F6,6.0,1
mp-1114133,Na3RuF6,-2.522667442375003,3,"[Element F, Element Na, Element Ru]",Cubic,Fm-3m,10,Na3 Ru1 F6,6.0,1
mp-1111701,Na3SbBr6,-1.346438406413793,3,"[Element Br, Element Na, Element Sb]",Cubic,Fm-3m,10,Na3 Sb1 Br6,6.0,1
mp-1111607,Na3SbCl6,-1.442923013249998,3,"[Element Cl, Element Na, Element Sb]",Cubic,Fm-3m,10,Na3 Sb1 Cl6,6.0,1
mp-1111642,Na3SbF6,-2.693925388413793,3,"[Element F, Element Na, Element Sb]",Cubic,Fm-3m,10,Na3 Sb1 F6,6.0,1
mp-1110813,Na3SbI6,-0.933221190413792,3,"[Element I, Element Na, Element Sb]",Cubic,Fm-3m,10,Na3 Sb1 I6,6.0,1
mp-1110797,Na3ScBr6,-1.816567088913792,3,"[Element Br, Element Na, Element Sc]",Cubic,Fm-3m,10,Na3 Sc1 Br6,6.0,1
mp-1111444,Na3ScCl6,-2.045909986749997,3,"[Element Cl, Element Na, Element Sc]",Cubic,Fm-3m,10,Na3 Sc1 Cl6,6.0,1
mp-1113433,Na3ScF6,-3.402573077,3,"[Element F, Element Na, Element Sc]",Cubic,Fm-3m,10,Na3 Sc1 F6,6.0,1
mp-1110812,Na3ScI6,-1.3138460189137922,3,"[Element I, Element Na, Element Sc]",Cubic,Fm-3m,10,Na3 Sc1 I6,6.0,1
mp-1113506,Na3SmCl6,-2.201461635913792,3,"[Element Cl, Element Na, Element Sm]",Cubic,Fm-3m,10,Na3 Sm1 Cl6,6.0,1
mp-1111519,Na3TaF6,-2.765995334840002,3,"[Element F, Element Na, Element Ta]",Cubic,Fm-3m,10,Na3 Ta1 F6,6.0,1
mp-1113313,Na3TbCl6,-2.107773943999999,3,"[Element Cl, Element Na, Element Tb]",Cubic,Fm-3m,10,Na3 Tb1 Cl6,6.0,1
mp-1111001,Na3TiF6,-3.159882192747126,3,"[Element F, Element Na, Element Ti]",Cubic,Fm-3m,10,Na3 Ti1 F6,6.0,1
mp-1111700,Na3TlBr6,-1.283740461747127,3,"[Element Br, Element Na, Element Tl]",Cubic,Fm-3m,10,Na3 Tl1 Br6,6.0,1
mp-1111000,Na3TlF6,-2.49314366825,3,"[Element F, Element Na, Element Tl]",Cubic,Fm-3m,10,Na3 Tl1 F6,6.0,1
mp-1111774,Na3TlI6,-0.8739459627471271,3,"[Element I, Element Na, Element Tl]",Cubic,Fm-3m,10,Na3 Tl1 I6,6.0,1
mp-1111504,Na3TmCl6,-2.112760153499995,3,"[Element Cl, Element Na, Element Tm]",Cubic,Fm-3m,10,Na3 Tm1 Cl6,6.0,1
mp-1111505,Na3VF6,-2.9673384145,3,"[Element F, Element Na, Element V]",Cubic,Fm-3m,10,Na3 V1 F6,6.0,1
mp-1111697,Na3YBr6,-1.868301947413793,3,"[Element Br, Element Na, Element Y]",Cubic,Fm-3m,10,Na3 Y1 Br6,6.0,1
mp-1111487,Na3YCl6,-2.0990087575,3,"[Element Cl, Element Na, Element Y]",Cubic,Fm-3m,10,Na3 Y1 Cl6,6.0,1
mp-1114251,Na3YF6,-3.416323306500001,3,"[Element F, Element Na, Element Y]",Cubic,Fm-3m,10,Na3 Y1 F6,6.0,1
mp-1111773,Na3YI6,-1.373290273413793,3,"[Element I, Element Na, Element Y]",Cubic,Fm-3m,10,Na3 Y1 I6,6.0,1
mp-1111553,NaLi2AlF6,-3.227846432611113,4,"[Element Al, Element F, Element Li, Element Na]",Cubic,Fm-3m,10,Na1 Li2 Al1 F6,6.0,1
mp-1111350,NaLi2AsF6,-2.42848944608333,4,"[Element As, Element F, Element Li, Element Na]",Cubic,Fm-3m,10,Na1 Li2 As1 F6,6.0,1
mp-1111550,NaLi2CoF6,-2.501523124804598,4,"[Element Co, Element F, Element Li, Element Na]",Cubic,Fm-3m,10,Na1 Li2 Co1 F6,6.0,1
mp-1111349,NaLi2CrF6,-2.862068752804597,4,"[Element Cr, Element F, Element Li, Element Na]",Cubic,Fm-3m,10,Na1 Li2 Cr1 F6,6.0,1
mp-1111348,NaLi2FeF6,-2.6902617468045973,4,"[Element F, Element Fe, Element Li, Element Na]",Cubic,Fm-3m,10,Na1 Li2 Fe1 F6,6.0,1
mp-1111142,NaLi2GaF6,-2.832968978554597,4,"[Element F, Element Ga, Element Li, Element Na]",Cubic,Fm-3m,10,Na1 Li2 Ga1 F6,6.0,1
mp-1111346,NaLi2IrF6,-2.258890115941661,4,"[Element F, Element Ir, Element Li, Element Na]",Cubic,Fm-3m,10,Na1 Li2 Ir1 F6,6.0,1
mp-1111191,NaLi2MnF6,-2.682731754597701,4,"[Element F, Element Li, Element Mn, Element Na]",Cubic,Fm-3m,10,Na1 Li2 Mn1 F6,6.0,1
mp-1111098,NaLi2MoF6,-2.6319066505833293,4,"[Element F, Element Li, Element Mo, Element Na]",Cubic,Fm-3m,10,Na1 Li2 Mo1 F6,6.0,1
mp-1111343,NaLi2NbF6,-2.671905884783334,4,"[Element F, Element Li, Element Na, Element Nb]",Cubic,Fm-3m,10,Na1 Li2 Nb1 F6,6.0,1
mp-1111095,NaLi2RhF6,-2.364253213804597,4,"[Element F, Element Li, Element Na, Element Rh]",Cubic,Fm-3m,10,Na1 Li2 Rh1 F6,6.0,1
mp-1111341,NaLi2RuF6,-2.34505622395833,4,"[Element F, Element Li, Element Na, Element Ru]",Cubic,Fm-3m,10,Na1 Li2 Ru1 F6,6.0,1
mp-1111340,NaLi2TaF6,-2.638083053639998,4,"[Element F, Element Li, Element Na, Element Ta]",Cubic,Fm-3m,10,Na1 Li2 Ta1 F6,6.0,1
mp-1111096,NaLi2TiF6,-3.04235333113793,4,"[Element F, Element Li, Element Na, Element Ti]",Cubic,Fm-3m,10,Na1 Li2 Ti1 F6,6.0,1
mp-1111338,NaLi2VF6,-2.825933653804598,4,"[Element F, Element Li, Element Na, Element V]",Cubic,Fm-3m,10,Na1 Li2 V1 F6,6.0,1
mp-1205541,NaScTl2F6,-3.149326909304599,4,"[Element F, Element Na, Element Sc, Element Tl]",Cubic,Fm-3m,10,Na1 Sc1 Tl2 F6,6.0,1
mp-989561,NaTl2GaF6,-2.650154488554599,4,"[Element F, Element Ga, Element Na, Element Tl]",Cubic,Fm-3m,10,Na1 Tl2 Ga1 F6,6.0,1
mp-989533,NaTl2InF6,-2.581778101471266,4,"[Element F, Element In, Element Na, Element Tl]",Cubic,Fm-3m,10,Na1 Tl2 In1 F6,6.0,1
mp-555970,NaTl2MoF6,-2.556509695804598,4,"[Element F, Element Mo, Element Na, Element Tl]",Cubic,Fm-3m,10,Na1 Tl2 Mo1 F6,6.0,1
mp-14037,NaTl2RhF6,-2.211141618804599,4,"[Element F, Element Na, Element Rh, Element Tl]",Cubic,Fm-3m,10,Na1 Tl2 Rh1 F6,6.0,1
mp-1206562,NaTl3F6,-2.195089750000002,3,"[Element F, Element Na, Element Tl]",Cubic,Fm-3m,10,Na1 Tl3 F6,6.0,1
mp-1111735,Rb2AgAsBr6,-1.289603306416666,4,"[Element Ag, Element As, Element Br, Element Rb]",Cubic,Fm-3m,10,Rb2 Ag1 As1 Br6,6.0,1
mp-1111655,Rb2AgAsCl6,-1.535834353416666,4,"[Element Ag, Element As, Element Cl, Element Rb]",Cubic,Fm-3m,10,Rb2 Ag1 As1 Cl6,6.0,1
mp-1110613,Rb2AgAsF6,-2.429388063416666,4,"[Element Ag, Element As, Element F, Element Rb]",Cubic,Fm-3m,10,Rb2 Ag1 As1 F6,6.0,1
mp-1111734,Rb2AgAuBr6,-1.175396540666665,4,"[Element Ag, Element Au, Element Br, Element Rb]",Cubic,Fm-3m,10,Rb2 Ag1 Au1 Br6,6.0,1
mp-1111469,Rb2AgAuCl6,-1.374417813666666,4,"[Element Ag, Element Au, Element Cl, Element Rb]",Cubic,Fm-3m,10,Rb2 Ag1 Au1 Cl6,6.0,1
mp-1110612,Rb2AgAuF6,-2.029013695666666,4,"[Element Ag, Element Au, Element F, Element Rb]",Cubic,Fm-3m,10,Rb2 Ag1 Au1 F6,6.0,1
mp-1110811,Rb2AgBiBr6,-1.413070619666666,4,"[Element Ag, Element Bi, Element Br, Element Rb]",Cubic,Fm-3m,10,Rb2 Ag1 Bi1 Br6,6.0,1
mp-1110810,Rb2AgBiCl6,-1.665001007666667,4,"[Element Ag, Element Bi, Element Cl, Element Rb]",Cubic,Fm-3m,10,Rb2 Ag1 Bi1 Cl6,6.0,1
mp-1110790,Rb2AgBiF6,-2.542093180666666,4,"[Element Ag, Element Bi, Element F, Element Rb]",Cubic,Fm-3m,10,Rb2 Ag1 Bi1 F6,6.0,1
mp-1110821,Rb2AgBiI6,-1.038919942666666,4,"[Element Ag, Element Bi, Element I, Element Rb]",Cubic,Fm-3m,10,Rb2 Ag1 Bi1 I6,6.0,1
mp-1110607,Rb2AgIrF6,-2.166378665666666,4,"[Element Ag, Element F, Element Ir, Element Rb]",Cubic,Fm-3m,10,Rb2 Ag1 Ir1 F6,6.0,1
mp-1110808,Rb2AgMoBr6,-1.299246832666666,4,"[Element Ag, Element Br, Element Mo, Element Rb]",Cubic,Fm-3m,10,Rb2 Ag1 Mo1 Br6,6.0,1
mp-1110796,Rb2AgMoCl6,-1.596520025666666,4,"[Element Ag, Element Cl, Element Mo, Element Rb]",Cubic,Fm-3m,10,Rb2 Ag1 Mo1 Cl6,6.0,1
mp-1110784,Rb2AgMoF6,-2.5906074216666672,4,"[Element Ag, Element F, Element Mo, Element Rb]",Cubic,Fm-3m,10,Rb2 Ag1 Mo1 F6,6.0,1
mp-1110819,Rb2AgMoI6,-0.8914548816666661,4,"[Element Ag, Element I, Element Mo, Element Rb]",Cubic,Fm-3m,10,Rb2 Ag1 Mo1 I6,6.0,1
mp-1110603,Rb2AgPdF6,-2.169373212666664,4,"[Element Ag, Element F, Element Pd, Element Rb]",Cubic,Fm-3m,10,Rb2 Ag1 Pd1 F6,6.0,1
mp-1110602,Rb2AgRhF6,-2.264492504666665,4,"[Element Ag, Element F, Element Rb, Element Rh]",Cubic,Fm-3m,10,Rb2 Ag1 Rh1 F6,6.0,1
mp-1110601,Rb2AgRuF6,-2.243152053666666,4,"[Element Ag, Element F, Element Rb, Element Ru]",Cubic,Fm-3m,10,Rb2 Ag1 Ru1 F6,6.0,1
mp-1110804,Rb2AgSbBr6,-1.366274936666666,4,"[Element Ag, Element Br, Element Rb, Element Sb]",Cubic,Fm-3m,10,Rb2 Ag1 Sb1 Br6,6.0,1
mp-1110803,Rb2AgSbCl6,-1.615785375666666,4,"[Element Ag, Element Cl, Element Rb, Element Sb]",Cubic,Fm-3m,10,Rb2 Ag1 Sb1 Cl6,6.0,1
mp-1110787,Rb2AgSbF6,-2.513192742666666,4,"[Element Ag, Element F, Element Rb, Element Sb]",Cubic,Fm-3m,10,Rb2 Ag1 Sb1 F6,6.0,1
mp-1110817,Rb2AgSbI6,-0.9987248226666661,4,"[Element Ag, Element I, Element Rb, Element Sb]",Cubic,Fm-3m,10,Rb2 Ag1 Sb1 I6,6.0,1
mp-1111736,Rb2AlAgBr6,-1.525940810666666,4,"[Element Ag, Element Al, Element Br, Element Rb]",Cubic,Fm-3m,10,Rb2 Al1 Ag1 Br6,6.0,1
mp-1111472,Rb2AlAgCl6,-1.860683853666666,4,"[Element Ag, Element Al, Element Cl, Element Rb]",Cubic,Fm-3m,10,Rb2 Al1 Ag1 Cl6,6.0,1
mp-1110614,Rb2AlAgF6,-3.052170508666666,4,"[Element Ag, Element Al, Element F, Element Rb]",Cubic,Fm-3m,10,Rb2 Al1 Ag1 F6,6.0,1
mp-1111722,Rb2AlAuBr6,-1.413173199499999,4,"[Element Al, Element Au, Element Br, Element Rb]",Cubic,Fm-3m,10,Rb2 Al1 Au1 Br6,6.0,1
mp-1111467,Rb2AlAuCl6,-1.724260328499999,4,"[Element Al, Element Au, Element Cl, Element Rb]",Cubic,Fm-3m,10,Rb2 Al1 Au1 Cl6,6.0,1
mp-1110596,Rb2AlAuF6,-2.8644463885,4,"[Element Al, Element Au, Element F, Element Rb]",Cubic,Fm-3m,10,Rb2 Al1 Au1 F6,6.0,1
mp-1111797,Rb2AlAuI6,-0.9959750515,4,"[Element Al, Element Au, Element I, Element Rb]",Cubic,Fm-3m,10,Rb2 Al1 Au1 I6,6.0,1
mp-1113818,Rb2AlCuF6,-2.9932984475,4,"[Element Al, Element Cu, Element F, Element Rb]",Cubic,Fm-3m,10,Rb2 Al1 Cu1 F6,6.0,1
mp-1113563,Rb2AlHgBr6,-1.48622114375,4,"[Element Al, Element Br, Element Hg, Element Rb]",Cubic,Fm-3m,10,Rb2 Al1 Hg1 Br6,6.0,1
mp-1113345,Rb2AlHgCl6,-1.7929127677500012,4,"[Element Al, Element Cl, Element Hg, Element Rb]",Cubic,Fm-3m,10,Rb2 Al1 Hg1 Cl6,6.0,1
mp-1112411,Rb2AlHgF6,-2.967438022750001,4,"[Element Al, Element F, Element Hg, Element Rb]",Cubic,Fm-3m,10,Rb2 Al1 Hg1 F6,6.0,1
mp-1114075,Rb2AlInBr6,-1.5905447561666661,4,"[Element Al, Element Br, Element In, Element Rb]",Cubic,Fm-3m,10,Rb2 Al1 In1 Br6,6.0,1
mp-1114076,Rb2AlInCl6,-1.9227813101666662,4,"[Element Al, Element Cl, Element In, Element Rb]",Cubic,Fm-3m,10,Rb2 Al1 In1 Cl6,6.0,1
mp-1113775,Rb2AlInF6,-3.154693985166666,4,"[Element Al, Element F, Element In, Element Rb]",Cubic,Fm-3m,10,Rb2 Al1 In1 F6,6.0,1
mp-1114138,Rb2AlInI6,-1.134806658166666,4,"[Element Al, Element I, Element In, Element Rb]",Cubic,Fm-3m,10,Rb2 Al1 In1 I6,6.0,1
mp-1114010,Rb2AlTlBr6,-1.626584340833333,4,"[Element Al, Element Br, Element Rb, Element Tl]",Cubic,Fm-3m,10,Rb2 Al1 Tl1 Br6,6.0,1
mp-1114008,Rb2AlTlCl6,-1.9625217438333342,4,"[Element Al, Element Cl, Element Rb, Element Tl]",Cubic,Fm-3m,10,Rb2 Al1 Tl1 Cl6,6.0,1
mp-1113654,Rb2AlTlF6,-3.190875712833334,4,"[Element Al, Element F, Element Rb, Element Tl]",Cubic,Fm-3m,10,Rb2 Al1 Tl1 F6,6.0,1
mp-1114117,Rb2AlTlI6,-1.165555580833334,4,"[Element Al, Element I, Element Rb, Element Tl]",Cubic,Fm-3m,10,Rb2 Al1 Tl1 I6,6.0,1
mp-1111721,Rb2AsAuBr6,-1.20359606825,4,"[Element As, Element Au, Element Br, Element Rb]",Cubic,Fm-3m,10,Rb2 As1 Au1 Br6,6.0,1
mp-1111626,Rb2AsAuCl6,-1.42524261825,4,"[Element As, Element Au, Element Cl, Element Rb]",Cubic,Fm-3m,10,Rb2 As1 Au1 Cl6,6.0,1
mp-1110595,Rb2AsAuF6,-2.2565488442499992,4,"[Element As, Element Au, Element F, Element Rb]",Cubic,Fm-3m,10,Rb2 As1 Au1 F6,6.0,1
mp-1111796,Rb2AsAuI6,-0.8758640292500001,4,"[Element As, Element Au, Element I, Element Rb]",Cubic,Fm-3m,10,Rb2 As1 Au1 I6,6.0,1
mp-1111720,Rb2BiAuBr6,-1.315900394499999,4,"[Element Au, Element Bi, Element Br, Element Rb]",Cubic,Fm-3m,10,Rb2 Bi1 Au1 Br6,6.0,1
mp-1111719,Rb2BiAuCl6,-1.5446268965,4,"[Element Au, Element Bi, Element Cl, Element Rb]",Cubic,Fm-3m,10,Rb2 Bi1 Au1 Cl6,6.0,1
mp-1111403,Rb2BiAuF6,-2.3630892465,4,"[Element Au, Element Bi, Element F, Element Rb]",Cubic,Fm-3m,10,Rb2 Bi1 Au1 F6,6.0,1
mp-1111795,Rb2BiAuI6,-0.9720027475,4,"[Element Au, Element Bi, Element I, Element Rb]",Cubic,Fm-3m,10,Rb2 Bi1 Au1 I6,6.0,1
mp-1110820,Rb2CeAgBr6,-1.842134083666665,4,"[Element Ag, Element Br, Element Ce, Element Rb]",Cubic,Fm-3m,10,Rb2 Ce1 Ag1 Br6,6.0,1
mp-1110809,Rb2CeAgCl6,-2.141492367666666,4,"[Element Ag, Element Ce, Element Cl, Element Rb]",Cubic,Fm-3m,10,Rb2 Ce1 Ag1 Cl6,6.0,1
mp-1111844,Rb2CeAgF6,-3.118304369666666,4,"[Element Ag, Element Ce, Element F, Element Rb]",Cubic,Fm-3m,10,Rb2 Ce1 Ag1 F6,6.0,1
mp-1110825,Rb2CeAgI6,-1.403327147666666,4,"[Element Ag, Element Ce, Element I, Element Rb]",Cubic,Fm-3m,10,Rb2 Ce1 Ag1 I6,6.0,1
mp-1113397,Rb2CeAuCl6,-2.0056116735,4,"[Element Au, Element Ce, Element Cl, Element Rb]",Cubic,Fm-3m,10,Rb2 Ce1 Au1 Cl6,6.0,1
mp-1113597,Rb2CeCuBr6,-1.7965286894999992,4,"[Element Br, Element Ce, Element Cu, Element Rb]",Cubic,Fm-3m,10,Rb2 Ce1 Cu1 Br6,6.0,1
mp-1113306,Rb2CeCuCl6,-2.105191103499999,4,"[Element Ce, Element Cl, Element Cu, Element Rb]",Cubic,Fm-3m,10,Rb2 Ce1 Cu1 Cl6,6.0,1
mp-1113307,Rb2CeCuF6,-3.086550719499999,4,"[Element Ce, Element Cu, Element F, Element Rb]",Cubic,Fm-3m,10,Rb2 Ce1 Cu1 F6,6.0,1
mp-1110611,Rb2CoAgF6,-2.356622655666667,4,"[Element Ag, Element Co, Element F, Element Rb]",Cubic,Fm-3m,10,Rb2 Co1 Ag1 F6,6.0,1
mp-1110594,Rb2CoAuF6,-2.1623652555,4,"[Element Au, Element Co, Element F, Element Rb]",Cubic,Fm-3m,10,Rb2 Co1 Au1 F6,6.0,1
mp-1112406,Rb2CoHgF6,-2.273958027750001,4,"[Element Co, Element F, Element Hg, Element Rb]",Cubic,Fm-3m,10,Rb2 Co1 Hg1 F6,6.0,1
mp-1110610,Rb2CrAgF6,-2.736779278666666,4,"[Element Ag, Element Cr, Element F, Element Rb]",Cubic,Fm-3m,10,Rb2 Cr1 Ag1 F6,6.0,1
mp-1110593,Rb2CrAuF6,-2.5511064155,4,"[Element Au, Element Cr, Element F, Element Rb]",Cubic,Fm-3m,10,Rb2 Cr1 Au1 F6,6.0,1
mp-1112407,Rb2CrHgF6,-2.57008291875,4,"[Element Cr, Element F, Element Hg, Element Rb]",Cubic,Fm-3m,10,Rb2 Cr1 Hg1 F6,6.0,1
mp-1113309,Rb2CuAsF6,-2.394712896249999,4,"[Element As, Element Cu, Element F, Element Rb]",Cubic,Fm-3m,10,Rb2 Cu1 As1 F6,6.0,1
mp-1113287,Rb2CuAuCl6,-1.3867248435000001,4,"[Element Au, Element Cl, Element Cu, Element Rb]",Cubic,Fm-3m,10,Rb2 Cu1 Au1 Cl6,6.0,1
mp-1111034,Rb2CuAuF6,-2.125885313499999,4,"[Element Au, Element Cu, Element F, Element Rb]",Cubic,Fm-3m,10,Rb2 Cu1 Au1 F6,6.0,1
mp-1110723,Rb2CuBiBr6,-1.3756930845,4,"[Element Bi, Element Br, Element Cu, Element Rb]",Cubic,Fm-3m,10,Rb2 Cu1 Bi1 Br6,6.0,1
mp-1110690,Rb2CuBiCl6,-1.6369621595,4,"[Element Bi, Element Cl, Element Cu, Element Rb]",Cubic,Fm-3m,10,Rb2 Cu1 Bi1 Cl6,6.0,1
mp-1113817,Rb2CuBiF6,-2.5127164175,4,"[Element Bi, Element Cu, Element F, Element Rb]",Cubic,Fm-3m,10,Rb2 Cu1 Bi1 F6,6.0,1
mp-1110765,Rb2CuBiI6,-0.9890770155,4,"[Element Bi, Element Cu, Element I, Element Rb]",Cubic,Fm-3m,10,Rb2 Cu1 Bi1 I6,6.0,1
mp-1110689,Rb2CuMoBr6,-1.2492365395,4,"[Element Br, Element Cu, Element Mo, Element Rb]",Cubic,Fm-3m,10,Rb2 Cu1 Mo1 Br6,6.0,1
mp-1110676,Rb2CuMoCl6,-1.5556305435,4,"[Element Cl, Element Cu, Element Mo, Element Rb]",Cubic,Fm-3m,10,Rb2 Cu1 Mo1 Cl6,6.0,1
mp-1110722,Rb2CuMoI6,-0.831397474499999,4,"[Element Cu, Element I, Element Mo, Element Rb]",Cubic,Fm-3m,10,Rb2 Cu1 Mo1 I6,6.0,1
mp-1113474,Rb2CuNiF6,-2.4479118664999993,4,"[Element Cu, Element F, Element Ni, Element Rb]",Cubic,Fm-3m,10,Rb2 Cu1 Ni1 F6,6.0,1
mp-1111483,Rb2CuPdF6,-2.2264177105,4,"[Element Cu, Element F, Element Pd, Element Rb]",Cubic,Fm-3m,10,Rb2 Cu1 Pd1 F6,6.0,1
mp-1113795,Rb2CuRuF6,-2.228017409499999,4,"[Element Cu, Element F, Element Rb, Element Ru]",Cubic,Fm-3m,10,Rb2 Cu1 Ru1 F6,6.0,1
mp-1110719,Rb2CuSbBr6,-1.329701577499999,4,"[Element Br, Element Cu, Element Rb, Element Sb]",Cubic,Fm-3m,10,Rb2 Cu1 Sb1 Br6,6.0,1
mp-1110686,Rb2CuSbCl6,-1.588264399499999,4,"[Element Cl, Element Cu, Element Rb, Element Sb]",Cubic,Fm-3m,10,Rb2 Cu1 Sb1 Cl6,6.0,1
mp-1110659,Rb2CuSbF6,-2.4788471875,4,"[Element Cu, Element F, Element Rb, Element Sb]",Cubic,Fm-3m,10,Rb2 Cu1 Sb1 F6,6.0,1
mp-1110762,Rb2CuSbI6,-0.9503694934999991,4,"[Element Cu, Element I, Element Rb, Element Sb]",Cubic,Fm-3m,10,Rb2 Cu1 Sb1 I6,6.0,1
mp-1111733,Rb2DyAgCl6,-2.177876610833332,4,"[Element Ag, Element Cl, Element Dy, Element Rb]",Cubic,Fm-3m,10,Rb2 Dy1 Ag1 Cl6,6.0,1
mp-1113655,Rb2DyAuCl6,-2.038942085666666,4,"[Element Au, Element Cl, Element Dy, Element Rb]",Cubic,Fm-3m,10,Rb2 Dy1 Au1 Cl6,6.0,1
mp-1113403,Rb2DyCuCl6,-2.135849725666666,4,"[Element Cl, Element Cu, Element Dy, Element Rb]",Cubic,Fm-3m,10,Rb2 Dy1 Cu1 Cl6,6.0,1
mp-1111636,Rb2ErAgCl6,-2.181475685666666,4,"[Element Ag, Element Cl, Element Er, Element Rb]",Cubic,Fm-3m,10,Rb2 Er1 Ag1 Cl6,6.0,1
mp-1113656,Rb2ErAuCl6,-2.042189960499999,4,"[Element Au, Element Cl, Element Er, Element Rb]",Cubic,Fm-3m,10,Rb2 Er1 Au1 Cl6,6.0,1
mp-1113288,Rb2ErCuCl6,-2.1385495995,4,"[Element Cl, Element Cu, Element Er, Element Rb]",Cubic,Fm-3m,10,Rb2 Er1 Cu1 Cl6,6.0,1
mp-1111732,Rb2EuAgCl6,-2.028006738166666,4,"[Element Ag, Element Cl, Element Eu, Element Rb]",Cubic,Fm-3m,10,Rb2 Eu1 Ag1 Cl6,6.0,1
mp-1113500,Rb2EuAuCl6,-1.9213189270000002,4,"[Element Au, Element Cl, Element Eu, Element Rb]",Cubic,Fm-3m,10,Rb2 Eu1 Au1 Cl6,6.0,1