material_id,pretty_formula,formation_energy_per_atom,num_elements,elements,crystal_system,space_group_symbol,nsites,composition,num_halogens,num_unique_halogen_types
mp-989520,Rb2NaBiCl6,-1.9298860416379302,4,"[Element Bi, Element Cl, Element Na, Element Rb]",Cubic,Fm-3m,10,Rb2 Na1 Bi1 Cl6,6.0,1
mp-560037,Rb2NaBiF6,-2.9172050726379313,4,"[Element Bi, Element F, Element Na, Element Rb]",Cubic,Fm-3m,10,Rb2 Na1 Bi1 F6,6.0,1
mp-1110772,Rb2NaBiI6,-1.233825945637931,4,"[Element Bi, Element I, Element Na, Element Rb]",Cubic,Fm-3m,10,Rb2 Na1 Bi1 I6,6.0,1
mp-1110742,Rb2NaCeBr6,-2.093176947637931,4,"[Element Br, Element Ce, Element Na, Element Rb]",Cubic,Fm-3m,10,Rb2 Na1 Ce1 Br6,6.0,1
mp-1110704,Rb2NaCeCl6,-2.42006482863793,4,"[Element Ce, Element Cl, Element Na, Element Rb]",Cubic,Fm-3m,10,Rb2 Na1 Ce1 Cl6,6.0,1
mp-1110664,Rb2NaCeF6,-3.4975676826379303,4,"[Element Ce, Element F, Element Na, Element Rb]",Cubic,Fm-3m,10,Rb2 Na1 Ce1 F6,6.0,1
mp-1110771,Rb2NaCeI6,-1.6183384786379311,4,"[Element Ce, Element I, Element Na, Element Rb]",Cubic,Fm-3m,10,Rb2 Na1 Ce1 I6,6.0,1
mp-559563,Rb2NaCoF6,-2.7226094986379312,4,"[Element Co, Element F, Element Na, Element Rb]",Cubic,Fm-3m,10,Rb2 Na1 Co1 F6,6.0,1
mp-1206059,Rb2NaCrCl6,-1.9874702516379301,4,"[Element Cl, Element Cr, Element Na, Element Rb]",Cubic,Fm-3m,10,Rb2 Na1 Cr1 Cl6,6.0,1
mp-560936,Rb2NaCrF6,-3.116374354637931,4,"[Element Cr, Element F, Element Na, Element Rb]",Cubic,Fm-3m,10,Rb2 Na1 Cr1 F6,6.0,1
mp-1206176,Rb2NaCuF6,-2.573304985637931,4,"[Element Cu, Element F, Element Na, Element Rb]",Cubic,Fm-3m,10,Rb2 Na1 Cu1 F6,6.0,1
mp-1114023,Rb2NaDyCl6,-2.460917983804592,4,"[Element Cl, Element Dy, Element Na, Element Rb]",Cubic,Fm-3m,10,Rb2 Na1 Dy1 Cl6,6.0,1
mp-1114024,Rb2NaErCl6,-2.465027089637931,4,"[Element Cl, Element Er, Element Na, Element Rb]",Cubic,Fm-3m,10,Rb2 Na1 Er1 Cl6,6.0,1
mp-13815,Rb2NaErF6,-3.60256619763793,4,"[Element Er, Element F, Element Na, Element Rb]",Cubic,Fm-3m,10,Rb2 Na1 Er1 F6,6.0,1
mp-1114020,Rb2NaEuCl6,-2.266146713137931,4,"[Element Cl, Element Eu, Element Na, Element Rb]",Cubic,Fm-3m,10,Rb2 Na1 Eu1 Cl6,6.0,1
mp-558078,Rb2NaFeF6,-2.9477506416379313,4,"[Element F, Element Fe, Element Na, Element Rb]",Cubic,Fm-3m,10,Rb2 Na1 Fe1 F6,6.0,1
mp-1110631,Rb2NaGaBr6,-1.635602664387931,4,"[Element Br, Element Ga, Element Na, Element Rb]",Cubic,Fm-3m,10,Rb2 Na1 Ga1 Br6,6.0,1
mp-1113926,Rb2NaGaCl6,-1.958261120387931,4,"[Element Cl, Element Ga, Element Na, Element Rb]",Cubic,Fm-3m,10,Rb2 Na1 Ga1 Cl6,6.0,1
mp-989400,Rb2NaGaF6,-3.07613155538793,4,"[Element F, Element Ga, Element Na, Element Rb]",Cubic,Fm-3m,10,Rb2 Na1 Ga1 F6,6.0,1
mp-1114019,Rb2NaGdCl6,-2.453550768637931,4,"[Element Cl, Element Gd, Element Na, Element Rb]",Cubic,Fm-3m,10,Rb2 Na1 Gd1 Cl6,6.0,1
mp-15317,Rb2NaHoF6,-3.59337799813793,4,"[Element F, Element Ho, Element Na, Element Rb]",Cubic,Fm-3m,10,Rb2 Na1 Ho1 F6,6.0,1
mp-1114017,Rb2NaInBr6,-1.677307463304596,4,"[Element Br, Element In, Element Na, Element Rb]",Cubic,Fm-3m,10,Rb2 Na1 In1 Br6,6.0,1
mp-989547,Rb2NaInCl6,-1.9831410013045971,4,"[Element Cl, Element In, Element Na, Element Rb]",Cubic,Fm-3m,10,Rb2 Na1 In1 Cl6,6.0,1
mp-989578,Rb2NaInF6,-3.002924792304597,4,"[Element F, Element In, Element Na, Element Rb]",Cubic,Fm-3m,10,Rb2 Na1 In1 F6,6.0,1
mp-1114118,Rb2NaInI6,-1.237574597304597,4,"[Element I, Element In, Element Na, Element Rb]",Cubic,Fm-3m,10,Rb2 Na1 In1 I6,6.0,1
mp-1113675,Rb2NaIrF6,-2.551363609637929,4,"[Element F, Element Ir, Element Na, Element Rb]",Cubic,Fm-3m,10,Rb2 Na1 Ir1 F6,6.0,1
mp-1114018,Rb2NaLaCl6,-2.466887044137931,4,"[Element Cl, Element La, Element Na, Element Rb]",Cubic,Fm-3m,10,Rb2 Na1 La1 Cl6,6.0,1
mp-1113676,Rb2NaMnF6,-2.941786795431034,4,"[Element F, Element Mn, Element Na, Element Rb]",Cubic,Fm-3m,10,Rb2 Na1 Mn1 F6,6.0,1
mp-1110703,Rb2NaMoBr6,-1.551942168637931,4,"[Element Br, Element Mo, Element Na, Element Rb]",Cubic,Fm-3m,10,Rb2 Na1 Mo1 Br6,6.0,1
mp-1110678,Rb2NaMoCl6,-1.8769559496379302,4,"[Element Cl, Element Mo, Element Na, Element Rb]",Cubic,Fm-3m,10,Rb2 Na1 Mo1 Cl6,6.0,1
mp-560963,Rb2NaMoF6,-2.980085377637931,4,"[Element F, Element Mo, Element Na, Element Rb]",Cubic,Fm-3m,10,Rb2 Na1 Mo1 F6,6.0,1
mp-1110741,Rb2NaMoI6,-1.109042959637931,4,"[Element I, Element Mo, Element Na, Element Rb]",Cubic,Fm-3m,10,Rb2 Na1 Mo1 I6,6.0,1
mp-1113673,Rb2NaNbF6,-3.008042601637931,4,"[Element F, Element Na, Element Nb, Element Rb]",Cubic,Fm-3m,10,Rb2 Na1 Nb1 F6,6.0,1
mp-1110740,Rb2NaNdBr6,-2.105838652387931,4,"[Element Br, Element Na, Element Nd, Element Rb]",Cubic,Fm-3m,10,Rb2 Na1 Nd1 Br6,6.0,1
mp-1110702,Rb2NaNdCl6,-2.43478969938793,4,"[Element Cl, Element Na, Element Nd, Element Rb]",Cubic,Fm-3m,10,Rb2 Na1 Nd1 Cl6,6.0,1
mp-1110646,Rb2NaNdF6,-3.511915733387931,4,"[Element F, Element Na, Element Nd, Element Rb]",Cubic,Fm-3m,10,Rb2 Na1 Nd1 F6,6.0,1
mp-1110770,Rb2NaNdI6,-1.6303087273879302,4,"[Element I, Element Na, Element Nd, Element Rb]",Cubic,Fm-3m,10,Rb2 Na1 Nd1 I6,6.0,1
mp-556353,Rb2NaNiF6,-2.6067016406379313,4,"[Element F, Element Na, Element Ni, Element Rb]",Cubic,Fm-3m,10,Rb2 Na1 Ni1 F6,6.0,1
mp-989569,Rb2NaPbF6,-2.76065953163793,4,"[Element F, Element Na, Element Pb, Element Rb]",Cubic,Fm-3m,10,Rb2 Na1 Pb1 F6,6.0,1
mp-1113670,Rb2NaPdF6,-2.49390292463793,4,"[Element F, Element Na, Element Pd, Element Rb]",Cubic,Fm-3m,10,Rb2 Na1 Pd1 F6,6.0,1
mp-1110739,Rb2NaPrBr6,-2.100951976804597,4,"[Element Br, Element Na, Element Pr, Element Rb]",Cubic,Fm-3m,10,Rb2 Na1 Pr1 Br6,6.0,1
mp-1110701,Rb2NaPrCl6,-2.427235913804597,4,"[Element Cl, Element Na, Element Pr, Element Rb]",Cubic,Fm-3m,10,Rb2 Na1 Pr1 Cl6,6.0,1
mp-1110663,Rb2NaPrF6,-3.494609592804598,4,"[Element F, Element Na, Element Pr, Element Rb]",Cubic,Fm-3m,10,Rb2 Na1 Pr1 F6,6.0,1
mp-1110769,Rb2NaPrI6,-1.628247420804597,4,"[Element I, Element Na, Element Pr, Element Rb]",Cubic,Fm-3m,10,Rb2 Na1 Pr1 I6,6.0,1
mp-14038,Rb2NaRhF6,-2.63831338763793,4,"[Element F, Element Na, Element Rb, Element Rh]",Cubic,Fm-3m,10,Rb2 Na1 Rh1 F6,6.0,1
mp-1113668,Rb2NaRuF6,-2.6262843826379303,4,"[Element F, Element Na, Element Rb, Element Ru]",Cubic,Fm-3m,10,Rb2 Na1 Ru1 F6,6.0,1
mp-1110700,Rb2NaSbBr6,-1.59448837963793,4,"[Element Br, Element Na, Element Rb, Element Sb]",Cubic,Fm-3m,10,Rb2 Na1 Sb1 Br6,6.0,1
mp-989545,Rb2NaSbCl6,-1.87563242763793,4,"[Element Cl, Element Na, Element Rb, Element Sb]",Cubic,Fm-3m,10,Rb2 Na1 Sb1 Cl6,6.0,1
mp-989541,Rb2NaSbF6,-2.88326380363793,4,"[Element F, Element Na, Element Rb, Element Sb]",Cubic,Fm-3m,10,Rb2 Na1 Sb1 F6,6.0,1
mp-1110768,Rb2NaSbI6,-1.187284405637931,4,"[Element I, Element Na, Element Rb, Element Sb]",Cubic,Fm-3m,10,Rb2 Na1 Sb1 I6,6.0,1
mp-1114016,Rb2NaScBr6,-2.05306927813793,4,"[Element Br, Element Na, Element Rb, Element Sc]",Cubic,Fm-3m,10,Rb2 Na1 Sc1 Br6,6.0,1
mp-1113963,Rb2NaScCl6,-2.401621242137931,4,"[Element Cl, Element Na, Element Rb, Element Sc]",Cubic,Fm-3m,10,Rb2 Na1 Sc1 Cl6,6.0,1
mp-1113669,Rb2NaScF6,-3.57439819013793,4,"[Element F, Element Na, Element Rb, Element Sc]",Cubic,Fm-3m,10,Rb2 Na1 Sc1 F6,6.0,1
mp-1114119,Rb2NaScI6,-1.561588831137932,4,"[Element I, Element Na, Element Rb, Element Sc]",Cubic,Fm-3m,10,Rb2 Na1 Sc1 I6,6.0,1
mp-1114014,Rb2NaSmCl6,-2.44517877713793,4,"[Element Cl, Element Na, Element Rb, Element Sm]",Cubic,Fm-3m,10,Rb2 Na1 Sm1 Cl6,6.0,1
mp-1206690,Rb2NaSmF6,-3.538864388137931,4,"[Element F, Element Na, Element Rb, Element Sm]",Cubic,Fm-3m,10,Rb2 Na1 Sm1 F6,6.0,1
mp-1110698,Rb2NaTaBr6,-1.582007779371264,4,"[Element Br, Element Na, Element Rb, Element Ta]",Cubic,Fm-3m,10,Rb2 Na1 Ta1 Br6,6.0,1
mp-1110677,Rb2NaTaCl6,-1.9193320653712642,4,"[Element Cl, Element Na, Element Rb, Element Ta]",Cubic,Fm-3m,10,Rb2 Na1 Ta1 Cl6,6.0,1
mp-1110644,Rb2NaTaF6,-2.942962404371264,4,"[Element F, Element Na, Element Rb, Element Ta]",Cubic,Fm-3m,10,Rb2 Na1 Ta1 F6,6.0,1
mp-1110738,Rb2NaTaI6,-1.123851365371264,4,"[Element I, Element Na, Element Rb, Element Ta]",Cubic,Fm-3m,10,Rb2 Na1 Ta1 I6,6.0,1
mp-1114015,Rb2NaTbCl6,-2.459523704304597,4,"[Element Cl, Element Na, Element Rb, Element Tb]",Cubic,Fm-3m,10,Rb2 Na1 Tb1 Cl6,6.0,1
mp-1205542,Rb2NaTbF6,-3.577728421304597,4,"[Element F, Element Na, Element Rb, Element Tb]",Cubic,Fm-3m,10,Rb2 Na1 Tb1 F6,6.0,1
mp-15626,Rb2NaTiF6,-3.3105537079712652,4,"[Element F, Element Na, Element Rb, Element Ti]",Cubic,Fm-3m,10,Rb2 Na1 Ti1 F6,6.0,1
mp-1114011,Rb2NaTlBr6,-1.528904055971265,4,"[Element Br, Element Na, Element Rb, Element Tl]",Cubic,Fm-3m,10,Rb2 Na1 Tl1 Br6,6.0,1
mp-989563,Rb2NaTlCl6,-1.799518091971264,4,"[Element Cl, Element Na, Element Rb, Element Tl]",Cubic,Fm-3m,10,Rb2 Na1 Tl1 Cl6,6.0,1
mp-989548,Rb2NaTlF6,-2.714412728971265,4,"[Element F, Element Na, Element Rb, Element Tl]",Cubic,Fm-3m,10,Rb2 Na1 Tl1 F6,6.0,1
mp-1114173,Rb2NaTlI6,-1.127913951971265,4,"[Element I, Element Na, Element Rb, Element Tl]",Cubic,Fm-3m,10,Rb2 Na1 Tl1 I6,6.0,1
mp-567498,Rb2NaTmCl6,-2.466064262637931,4,"[Element Cl, Element Na, Element Rb, Element Tm]",Cubic,Fm-3m,10,Rb2 Na1 Tm1 Cl6,6.0,1
mp-1206768,Rb2NaVCl6,-2.025616352637931,4,"[Element Cl, Element Na, Element Rb, Element V]",Cubic,Fm-3m,10,Rb2 Na1 V1 Cl6,6.0,1
mp-560671,Rb2NaVF6,-3.166100738637932,4,"[Element F, Element Na, Element Rb, Element V]",Cubic,Fm-3m,10,Rb2 Na1 V1 F6,6.0,1
mp-1110697,Rb2NaYBr6,-2.114813816637931,4,"[Element Br, Element Na, Element Rb, Element Y]",Cubic,Fm-3m,10,Rb2 Na1 Y1 Br6,6.0,1
mp-1110696,Rb2NaYCl6,-2.45517472363793,4,"[Element Cl, Element Na, Element Rb, Element Y]",Cubic,Fm-3m,10,Rb2 Na1 Y1 Cl6,6.0,1
mp-13926,Rb2NaYF6,-3.56894743563793,4,"[Element F, Element Na, Element Rb, Element Y]",Cubic,Fm-3m,10,Rb2 Na1 Y1 F6,6.0,1
mp-1110767,Rb2NaYI6,-1.6280083946379311,4,"[Element I, Element Na, Element Rb, Element Y]",Cubic,Fm-3m,10,Rb2 Na1 Y1 I6,6.0,1
mp-1205802,Rb2NaYbF6,-3.625714126750002,4,"[Element F, Element Na, Element Rb, Element Yb]",Cubic,Fm-3m,10,Rb2 Na1 Yb1 F6,6.0,1
mp-1110605,Rb2NbAgF6,-2.620458913666666,4,"[Element Ag, Element F, Element Nb, Element Rb]",Cubic,Fm-3m,10,Rb2 Nb1 Ag1 F6,6.0,1
mp-1111465,Rb2NbAuF6,-2.6124163255,4,"[Element Au, Element F, Element Nb, Element Rb]",Cubic,Fm-3m,10,Rb2 Nb1 Au1 F6,6.0,1
mp-1111031,Rb2NbCuF6,-2.5835610415,4,"[Element Cu, Element F, Element Nb, Element Rb]",Cubic,Fm-3m,10,Rb2 Nb1 Cu1 F6,6.0,1
mp-1113939,Rb2NbHgF6,-2.78203362675,4,"[Element F, Element Hg, Element Nb, Element Rb]",Cubic,Fm-3m,10,Rb2 Nb1 Hg1 F6,6.0,1
mp-1113860,Rb2NbTlF6,-2.756959360833334,4,"[Element F, Element Nb, Element Rb, Element Tl]",Cubic,Fm-3m,10,Rb2 Nb1 Tl1 F6,6.0,1
mp-1110807,Rb2NdAgBr6,-1.852370581416666,4,"[Element Ag, Element Br, Element Nd, Element Rb]",Cubic,Fm-3m,10,Rb2 Nd1 Ag1 Br6,6.0,1
mp-1110806,Rb2NdAgCl6,-2.153734668416666,4,"[Element Ag, Element Cl, Element Nd, Element Rb]",Cubic,Fm-3m,10,Rb2 Nd1 Ag1 Cl6,6.0,1
mp-1110789,Rb2NdAgF6,-3.130812890416666,4,"[Element Ag, Element F, Element Nd, Element Rb]",Cubic,Fm-3m,10,Rb2 Nd1 Ag1 F6,6.0,1
mp-1110824,Rb2NdAgI6,-1.413274834416666,4,"[Element Ag, Element I, Element Nd, Element Rb]",Cubic,Fm-3m,10,Rb2 Nd1 Ag1 I6,6.0,1
mp-1113660,Rb2NdAuCl6,-2.016020950249999,4,"[Element Au, Element Cl, Element Nd, Element Rb]",Cubic,Fm-3m,10,Rb2 Nd1 Au1 Cl6,6.0,1
mp-1110721,Rb2NdCuBr6,-1.80456363025,4,"[Element Br, Element Cu, Element Nd, Element Rb]",Cubic,Fm-3m,10,Rb2 Nd1 Cu1 Br6,6.0,1
mp-1110688,Rb2NdCuCl6,-2.11429895525,4,"[Element Cl, Element Cu, Element Nd, Element Rb]",Cubic,Fm-3m,10,Rb2 Nd1 Cu1 Cl6,6.0,1
mp-1110660,Rb2NdCuF6,-3.08967114525,4,"[Element Cu, Element F, Element Nd, Element Rb]",Cubic,Fm-3m,10,Rb2 Nd1 Cu1 F6,6.0,1
mp-1110764,Rb2NdCuI6,-1.355390682249999,4,"[Element Cu, Element I, Element Nd, Element Rb]",Cubic,Fm-3m,10,Rb2 Nd1 Cu1 I6,6.0,1
mp-1110604,Rb2NiAgF6,-2.336377894666666,4,"[Element Ag, Element F, Element Ni, Element Rb]",Cubic,Fm-3m,10,Rb2 Ni1 Ag1 F6,6.0,1
mp-1110586,Rb2NiAuF6,-2.2117716575,4,"[Element Au, Element F, Element Ni, Element Rb]",Cubic,Fm-3m,10,Rb2 Ni1 Au1 F6,6.0,1
mp-1110585,Rb2PdAuF6,-2.028620010499999,4,"[Element Au, Element F, Element Pd, Element Rb]",Cubic,Fm-3m,10,Rb2 Pd1 Au1 F6,6.0,1
mp-1110818,Rb2PrAgBr6,-1.848100200833332,4,"[Element Ag, Element Br, Element Pr, Element Rb]",Cubic,Fm-3m,10,Rb2 Pr1 Ag1 Br6,6.0,1
mp-1110805,Rb2PrAgCl6,-2.146478773833332,4,"[Element Ag, Element Cl, Element Pr, Element Rb]",Cubic,Fm-3m,10,Rb2 Pr1 Ag1 Cl6,6.0,1
mp-1110788,Rb2PrAgF6,-3.113763317833332,4,"[Element Ag, Element F, Element Pr, Element Rb]",Cubic,Fm-3m,10,Rb2 Pr1 Ag1 F6,6.0,1
mp-1110823,Rb2PrAgI6,-1.411647319833333,4,"[Element Ag, Element I, Element Pr, Element Rb]",Cubic,Fm-3m,10,Rb2 Pr1 Ag1 I6,6.0,1
mp-1113464,Rb2PrAuCl6,-2.008961528666666,4,"[Element Au, Element Cl, Element Pr, Element Rb]",Cubic,Fm-3m,10,Rb2 Pr1 Au1 Cl6,6.0,1
mp-1110720,Rb2PrCuBr6,-1.800356482666666,4,"[Element Br, Element Cu, Element Pr, Element Rb]",Cubic,Fm-3m,10,Rb2 Pr1 Cu1 Br6,6.0,1
mp-1110687,Rb2PrCuCl6,-2.107309043666666,4,"[Element Cl, Element Cu, Element Pr, Element Rb]",Cubic,Fm-3m,10,Rb2 Pr1 Cu1 Cl6,6.0,1
mp-1113802,Rb2PrCuF6,-3.072874017666666,4,"[Element Cu, Element F, Element Pr, Element Rb]",Cubic,Fm-3m,10,Rb2 Pr1 Cu1 F6,6.0,1
mp-1110763,Rb2PrCuI6,-1.354138955666666,4,"[Element Cu, Element I, Element Pr, Element Rb]",Cubic,Fm-3m,10,Rb2 Pr1 Cu1 I6,6.0,1
mp-1110584,Rb2RhAuF6,-2.0848745765,4,"[Element Au, Element F, Element Rb, Element Rh]",Cubic,Fm-3m,10,Rb2 Rh1 Au1 F6,6.0,1
mp-1110583,Rb2RuAuF6,-2.0575823095,4,"[Element Au, Element F, Element Rb, Element Ru]",Cubic,Fm-3m,10,Rb2 Ru1 Au1 F6,6.0,1
mp-1111716,Rb2SbAuBr6,-1.274948300499999,4,"[Element Au, Element Br, Element Rb, Element Sb]",Cubic,Fm-3m,10,Rb2 Sb1 Au1 Br6,6.0,1
mp-1111715,Rb2SbAuCl6,-1.500795139499999,4,"[Element Au, Element Cl, Element Rb, Element Sb]",Cubic,Fm-3m,10,Rb2 Sb1 Au1 Cl6,6.0,1
mp-1111402,Rb2SbAuF6,-2.3409232105,4,"[Element Au, Element F, Element Rb, Element Sb]",Cubic,Fm-3m,10,Rb2 Sb1 Au1 F6,6.0,1
mp-1111790,Rb2SbAuI6,-0.9391753015000001,4,"[Element Au, Element I, Element Rb, Element Sb]",Cubic,Fm-3m,10,Rb2 Sb1 Au1 I6,6.0,1
mp-1111726,Rb2ScAgBr6,-1.799523226166666,4,"[Element Ag, Element Br, Element Rb, Element Sc]",Cubic,Fm-3m,10,Rb2 Sc1 Ag1 Br6,6.0,1
mp-1110795,Rb2ScAgCl6,-2.120679242166666,4,"[Element Ag, Element Cl, Element Rb, Element Sc]",Cubic,Fm-3m,10,Rb2 Sc1 Ag1 Cl6,6.0,1
mp-1110600,Rb2ScAgF6,-3.194765403166666,4,"[Element Ag, Element F, Element Rb, Element Sc]",Cubic,Fm-3m,10,Rb2 Sc1 Ag1 F6,6.0,1
mp-1111799,Rb2ScAgI6,-1.343710374166666,4,"[Element Ag, Element I, Element Rb, Element Sc]",Cubic,Fm-3m,10,Rb2 Sc1 Ag1 I6,6.0,1
mp-1111714,Rb2ScAuBr6,-1.682009017,4,"[Element Au, Element Br, Element Rb, Element Sc]",Cubic,Fm-3m,10,Rb2 Sc1 Au1 Br6,6.0,1
mp-1111620,Rb2ScAuCl6,-1.9843116790000002,4,"[Element Au, Element Cl, Element Rb, Element Sc]",Cubic,Fm-3m,10,Rb2 Sc1 Au1 Cl6,6.0,1
mp-1110582,Rb2ScAuF6,-3.009116091,4,"[Element Au, Element F, Element Rb, Element Sc]",Cubic,Fm-3m,10,Rb2 Sc1 Au1 F6,6.0,1
mp-1111788,Rb2ScAuI6,-1.252791744999999,4,"[Element Au, Element I, Element Rb, Element Sc]",Cubic,Fm-3m,10,Rb2 Sc1 Au1 I6,6.0,1
mp-1113560,Rb2ScCuCl6,-2.079400378,4,"[Element Cl, Element Cu, Element Rb, Element Sc]",Cubic,Fm-3m,10,Rb2 Sc1 Cu1 Cl6,6.0,1
mp-1113796,Rb2ScCuF6,-3.151056795999999,4,"[Element Cu, Element F, Element Rb, Element Sc]",Cubic,Fm-3m,10,Rb2 Sc1 Cu1 F6,6.0,1
mp-1113386,Rb2ScHgBr6,-1.725265643250001,4,"[Element Br, Element Hg, Element Rb, Element Sc]",Cubic,Fm-3m,10,Rb2 Sc1 Hg1 Br6,6.0,1
mp-1113387,Rb2ScHgCl6,-2.026472031250001,4,"[Element Cl, Element Hg, Element Rb, Element Sc]",Cubic,Fm-3m,10,Rb2 Sc1 Hg1 Cl6,6.0,1
mp-1111002,Rb2ScHgF6,-3.10664248325,4,"[Element F, Element Hg, Element Rb, Element Sc]",Cubic,Fm-3m,10,Rb2 Sc1 Hg1 F6,6.0,1
mp-1113502,Rb2ScHgI6,-1.28957489125,4,"[Element Hg, Element I, Element Rb, Element Sc]",Cubic,Fm-3m,10,Rb2 Sc1 Hg1 I6,6.0,1
mp-1114132,Rb2ScInBr6,-1.848960110666666,4,"[Element Br, Element In, Element Rb, Element Sc]",Cubic,Fm-3m,10,Rb2 Sc1 In1 Br6,6.0,1
mp-1114049,Rb2ScInCl6,-2.168427678666666,4,"[Element Cl, Element In, Element Rb, Element Sc]",Cubic,Fm-3m,10,Rb2 Sc1 In1 Cl6,6.0,1
mp-1113896,Rb2ScInF6,-3.293990089666666,4,"[Element F, Element In, Element Rb, Element Sc]",Cubic,Fm-3m,10,Rb2 Sc1 In1 F6,6.0,1
mp-1114188,Rb2ScInI6,-1.391071834666666,4,"[Element I, Element In, Element Rb, Element Sc]",Cubic,Fm-3m,10,Rb2 Sc1 In1 I6,6.0,1
mp-1114111,Rb2ScTlBr6,-1.8871704093333341,4,"[Element Br, Element Rb, Element Sc, Element Tl]",Cubic,Fm-3m,10,Rb2 Sc1 Tl1 Br6,6.0,1
mp-1114003,Rb2ScTlCl6,-2.208681938333334,4,"[Element Cl, Element Rb, Element Sc, Element Tl]",Cubic,Fm-3m,10,Rb2 Sc1 Tl1 Cl6,6.0,1
mp-1113855,Rb2ScTlF6,-3.326228318333334,4,"[Element F, Element Rb, Element Sc, Element Tl]",Cubic,Fm-3m,10,Rb2 Sc1 Tl1 F6,6.0,1
mp-1114163,Rb2ScTlI6,-1.427644711333334,4,"[Element I, Element Rb, Element Sc, Element Tl]",Cubic,Fm-3m,10,Rb2 Sc1 Tl1 I6,6.0,1
mp-1111725,Rb2SmAgCl6,-2.163506613166666,4,"[Element Ag, Element Cl, Element Rb, Element Sm]",Cubic,Fm-3m,10,Rb2 Sm1 Ag1 Cl6,6.0,1
mp-1113640,Rb2SmAuCl6,-2.025409937,4,"[Element Au, Element Cl, Element Rb, Element Sm]",Cubic,Fm-3m,10,Rb2 Sm1 Au1 Cl6,6.0,1
mp-1112430,Rb2SmCuCl6,-2.123311536,4,"[Element Cl, Element Cu, Element Rb, Element Sm]",Cubic,Fm-3m,10,Rb2 Sm1 Cu1 Cl6,6.0,1
mp-1110802,Rb2TaAgBr6,-1.323352997399999,4,"[Element Ag, Element Br, Element Rb, Element Ta]",Cubic,Fm-3m,10,Rb2 Ta1 Ag1 Br6,6.0,1
mp-1110794,Rb2TaAgCl6,-1.6324497973999992,4,"[Element Ag, Element Cl, Element Rb, Element Ta]",Cubic,Fm-3m,10,Rb2 Ta1 Ag1 Cl6,6.0,1
mp-1111828,Rb2TaAgF6,-2.699211225399999,4,"[Element Ag, Element F, Element Rb, Element Ta]",Cubic,Fm-3m,10,Rb2 Ta1 Ag1 F6,6.0,1
mp-1111827,Rb2TaAgI6,-0.9023552963999991,4,"[Element Ag, Element I, Element Rb, Element Ta]",Cubic,Fm-3m,10,Rb2 Ta1 Ag1 I6,6.0,1
mp-1111046,Rb2TaAuF6,-2.751740552233333,4,"[Element Au, Element F, Element Rb, Element Ta]",Cubic,Fm-3m,10,Rb2 Ta1 Au1 F6,6.0,1
mp-1113344,Rb2TaCuBr6,-1.271575133233332,4,"[Element Br, Element Cu, Element Rb, Element Ta]",Cubic,Fm-3m,10,Rb2 Ta1 Cu1 Br6,6.0,1
mp-1113948,Rb2TaCuCl6,-1.589300270233332,4,"[Element Cl, Element Cu, Element Rb, Element Ta]",Cubic,Fm-3m,10,Rb2 Ta1 Cu1 Cl6,6.0,1
mp-1113790,Rb2TaCuF6,-2.516365576233333,4,"[Element Cu, Element F, Element Rb, Element Ta]",Cubic,Fm-3m,10,Rb2 Ta1 Cu1 F6,6.0,1
mp-1110718,Rb2TaCuI6,-0.8413938472333331,4,"[Element Cu, Element I, Element Rb, Element Ta]",Cubic,Fm-3m,10,Rb2 Ta1 Cu1 I6,6.0,1
mp-1113934,Rb2TaHgF6,-2.8179590194833333,4,"[Element F, Element Hg, Element Rb, Element Ta]",Cubic,Fm-3m,10,Rb2 Ta1 Hg1 F6,6.0,1
mp-1113852,Rb2TaTlF6,-2.702851017566667,4,"[Element F, Element Rb, Element Ta, Element Tl]",Cubic,Fm-3m,10,Rb2 Ta1 Tl1 F6,6.0,1
mp-1111724,Rb2TbAgCl6,-2.176792811333333,4,"[Element Ag, Element Cl, Element Rb, Element Tb]",Cubic,Fm-3m,10,Rb2 Tb1 Ag1 Cl6,6.0,1
mp-1113641,Rb2TbAuCl6,-2.038038047166666,4,"[Element Au, Element Cl, Element Rb, Element Tb]",Cubic,Fm-3m,10,Rb2 Tb1 Au1 Cl6,6.0,1
mp-1112416,Rb2TbCuCl6,-2.135208446166666,4,"[Element Cl, Element Cu, Element Rb, Element Tb]",Cubic,Fm-3m,10,Rb2 Tb1 Cu1 Cl6,6.0,1
mp-1110599,Rb2TiAgF6,-2.929266637,4,"[Element Ag, Element F, Element Rb, Element Ti]",Cubic,Fm-3m,10,Rb2 Ti1 Ag1 F6,6.0,1
mp-1111401,Rb2TiAuF6,-2.846980579833333,4,"[Element Au, Element F, Element Rb, Element Ti]",Cubic,Fm-3m,10,Rb2 Ti1 Au1 F6,6.0,1
mp-1113935,Rb2TiHgF6,-3.086033571083334,4,"[Element F, Element Hg, Element Rb, Element Ti]",Cubic,Fm-3m,10,Rb2 Ti1 Hg1 F6,6.0,1
mp-1113853,Rb2TiTlF6,-3.063451584166667,4,"[Element F, Element Rb, Element Ti, Element Tl]",Cubic,Fm-3m,10,Rb2 Ti1 Tl1 F6,6.0,1
mp-1111723,Rb2TlAgBr6,-1.312936539,4,"[Element Ag, Element Br, Element Rb, Element Tl]",Cubic,Fm-3m,10,Rb2 Tl1 Ag1 Br6,6.0,1
mp-1111629,Rb2TlAgCl6,-1.546812579,4,"[Element Ag, Element Cl, Element Rb, Element Tl]",Cubic,Fm-3m,10,Rb2 Tl1 Ag1 Cl6,6.0,1
mp-1110598,Rb2TlAgF6,-2.345675436,4,"[Element Ag, Element F, Element Rb, Element Tl]",Cubic,Fm-3m,10,Rb2 Tl1 Ag1 F6,6.0,1
mp-1111798,Rb2TlAgI6,-0.9637666960000001,4,"[Element Ag, Element I, Element Rb, Element Tl]",Cubic,Fm-3m,10,Rb2 Tl1 Ag1 I6,6.0,1