material_id,pretty_formula,formation_energy_per_atom,num_elements,elements,crystal_system,space_group_symbol,nsites,composition,num_halogens,num_unique_halogen_types
mp-989574,Cs2NaSrF6,-3.013346729068966,4,"[Element Cs, Element F, Element Na, Element Sr]",Cubic,Fm-3m,10,Cs2 Na1 Sr1 F6,6.0,1
mp-1111728,Cs2NaTaBr6,-1.617391389802299,4,"[Element Br, Element Cs, Element Na, Element Ta]",Cubic,Fm-3m,10,Cs2 Na1 Ta1 Br6,6.0,1
mp-1111428,Cs2NaTaCl6,-1.946303391802299,4,"[Element Cl, Element Cs, Element Na, Element Ta]",Cubic,Fm-3m,10,Cs2 Na1 Ta1 Cl6,6.0,1
mp-1112399,Cs2NaTaI6,-1.167946801802299,4,"[Element Cs, Element I, Element Na, Element Ta]",Cubic,Fm-3m,10,Cs2 Na1 Ta1 I6,6.0,1
mp-568670,Cs2NaTbCl6,-2.496447220735632,4,"[Element Cl, Element Cs, Element Na, Element Tb]",Cubic,Fm-3m,10,Cs2 Na1 Tb1 Cl6,6.0,1
mp-1206873,Cs2NaTbF6,-3.58348305773563,4,"[Element Cs, Element F, Element Na, Element Tb]",Cubic,Fm-3m,10,Cs2 Na1 Tb1 F6,6.0,1
mp-1112138,Cs2NaTlBr6,-1.571439963402299,4,"[Element Br, Element Cs, Element Na, Element Tl]",Cubic,Fm-3m,10,Cs2 Na1 Tl1 Br6,6.0,1
mp-1112527,Cs2NaTlCl6,-1.8345188524023,4,"[Element Cl, Element Cs, Element Na, Element Tl]",Cubic,Fm-3m,10,Cs2 Na1 Tl1 Cl6,6.0,1
mp-13800,Cs2NaTlF6,-2.718130387402299,4,"[Element Cs, Element F, Element Na, Element Tl]",Cubic,Fm-3m,10,Cs2 Na1 Tl1 F6,6.0,1
mp-1112139,Cs2NaTlI6,-1.1778754554023,4,"[Element Cs, Element I, Element Na, Element Tl]",Cubic,Fm-3m,10,Cs2 Na1 Tl1 I6,6.0,1
mp-1112567,Cs2NaTmCl6,-2.500336801068966,4,"[Element Cl, Element Cs, Element Na, Element Tm]",Cubic,Fm-3m,10,Cs2 Na1 Tm1 Cl6,6.0,1
mp-23108,Cs2NaUCl6,-2.241433994068965,4,"[Element Cl, Element Cs, Element Na, Element U]",Cubic,Fm-3m,10,Cs2 Na1 U1 Cl6,6.0,1
mp-571467,Cs2NaYBr6,-2.157973410068965,4,"[Element Br, Element Cs, Element Na, Element Y]",Cubic,Fm-3m,10,Cs2 Na1 Y1 Br6,6.0,1
mp-23120,Cs2NaYCl6,-2.491634642068965,4,"[Element Cl, Element Cs, Element Na, Element Y]",Cubic,Fm-3m,10,Cs2 Na1 Y1 Cl6,6.0,1
mp-13925,Cs2NaYF6,-3.573435046068965,4,"[Element Cs, Element F, Element Na, Element Y]",Cubic,Fm-3m,10,Cs2 Na1 Y1 F6,6.0,1
mp-1112137,Cs2NaYI6,-1.6785762190689661,4,"[Element Cs, Element I, Element Na, Element Y]",Cubic,Fm-3m,10,Cs2 Na1 Y1 I6,6.0,1
mp-567172,Cs2NaYbCl6,-2.400583374999999,4,"[Element Cl, Element Cs, Element Na, Element Yb]",Cubic,Fm-3m,10,Cs2 Na1 Yb1 Cl6,6.0,1
mp-1112950,Cs2NbAgF6,-2.589333719666663,4,"[Element Ag, Element Cs, Element F, Element Nb]",Cubic,Fm-3m,10,Cs2 Nb1 Ag1 F6,6.0,1
mp-1112641,Cs2NbAuF6,-2.604898890000007,4,"[Element Au, Element Cs, Element F, Element Nb]",Cubic,Fm-3m,10,Cs2 Nb1 Au1 F6,6.0,1
mp-1113104,Cs2NbCuF6,-2.525266929000003,4,"[Element Cs, Element Cu, Element F, Element Nb]",Cubic,Fm-3m,10,Cs2 Nb1 Cu1 F6,6.0,1
mp-1111976,Cs2NbTlF6,-2.742581756333334,4,"[Element Cs, Element F, Element Nb, Element Tl]",Cubic,Fm-3m,10,Cs2 Nb1 Tl1 F6,6.0,1
mp-1112944,Cs2NdAgBr6,-1.897230833847701,4,"[Element Ag, Element Br, Element Cs, Element Nd]",Cubic,Fm-3m,10,Cs2 Nd1 Ag1 Br6,6.0,1
mp-1112945,Cs2NdAgCl6,-2.193925534847708,4,"[Element Ag, Element Cl, Element Cs, Element Nd]",Cubic,Fm-3m,10,Cs2 Nd1 Ag1 Cl6,6.0,1
mp-1113229,Cs2NdAgF6,-3.137904715750005,4,"[Element Ag, Element Cs, Element F, Element Nd]",Cubic,Fm-3m,10,Cs2 Nd1 Ag1 F6,6.0,1
mp-1113269,Cs2NdAgI6,-1.4629922338477002,4,"[Element Ag, Element Cs, Element I, Element Nd]",Cubic,Fm-3m,10,Cs2 Nd1 Ag1 I6,6.0,1
mp-1113409,Cs2NdAuCl6,-2.056644206681034,4,"[Element Au, Element Cl, Element Cs, Element Nd]",Cubic,Fm-3m,10,Cs2 Nd1 Au1 Cl6,6.0,1
mp-1111885,Cs2NdCuBr6,-1.840502089681035,4,"[Element Br, Element Cs, Element Cu, Element Nd]",Cubic,Fm-3m,10,Cs2 Nd1 Cu1 Br6,6.0,1
mp-1112884,Cs2NdCuI6,-1.399856529681034,4,"[Element Cs, Element Cu, Element I, Element Nd]",Cubic,Fm-3m,10,Cs2 Nd1 Cu1 I6,6.0,1
mp-1113236,Cs2PrAgCl6,-2.187607407264367,4,"[Element Ag, Element Cl, Element Cs, Element Pr]",Cubic,Fm-3m,10,Cs2 Pr1 Ag1 Cl6,6.0,1
mp-1113230,Cs2PrAgF6,-3.144332087264368,4,"[Element Ag, Element Cs, Element F, Element Pr]",Cubic,Fm-3m,10,Cs2 Pr1 Ag1 F6,6.0,1
mp-1112942,Cs2PrAgI6,-1.461820751264368,4,"[Element Ag, Element Cs, Element I, Element Pr]",Cubic,Fm-3m,10,Cs2 Pr1 Ag1 I6,6.0,1
mp-1113408,Cs2PrAuCl6,-2.050515237097701,4,"[Element Au, Element Cl, Element Cs, Element Pr]",Cubic,Fm-3m,10,Cs2 Pr1 Au1 Cl6,6.0,1
mp-1113355,Cs2PrCuBr6,-1.8372968130977,4,"[Element Br, Element Cs, Element Cu, Element Pr]",Cubic,Fm-3m,10,Cs2 Pr1 Cu1 Br6,6.0,1
mp-1111470,Cs2PrCuCl6,-2.136898362097701,4,"[Element Cl, Element Cs, Element Cu, Element Pr]",Cubic,Fm-3m,10,Cs2 Pr1 Cu1 Cl6,6.0,1
mp-1112883,Cs2PrCuI6,-1.3993131760977011,4,"[Element Cs, Element Cu, Element I, Element Pr]",Cubic,Fm-3m,10,Cs2 Pr1 Cu1 I6,6.0,1
mp-1112531,Cs2RbAlBr6,-1.837406719681034,4,"[Element Al, Element Br, Element Cs, Element Rb]",Cubic,Fm-3m,10,Cs2 Rb1 Al1 Br6,6.0,1
mp-1112525,Cs2RbAlCl6,-2.184768013681034,4,"[Element Al, Element Cl, Element Cs, Element Rb]",Cubic,Fm-3m,10,Cs2 Rb1 Al1 Cl6,6.0,1
mp-1113048,Cs2RbAlF6,-3.231497278681034,4,"[Element Al, Element Cs, Element F, Element Rb]",Cubic,Fm-3m,10,Cs2 Rb1 Al1 F6,6.0,1
mp-1112133,Cs2RbAlI6,-1.361633925681034,4,"[Element Al, Element Cs, Element I, Element Rb]",Cubic,Fm-3m,10,Cs2 Rb1 Al1 I6,6.0,1
mp-1112134,Cs2RbAsBr6,-1.5705858744310341,4,"[Element As, Element Br, Element Cs, Element Rb]",Cubic,Fm-3m,10,Cs2 Rb1 As1 Br6,6.0,1
mp-1112007,Cs2RbAsCl6,-1.833220260431034,4,"[Element As, Element Cl, Element Cs, Element Rb]",Cubic,Fm-3m,10,Cs2 Rb1 As1 Cl6,6.0,1
mp-1111968,Cs2RbAsF6,-2.779772439431034,4,"[Element As, Element Cs, Element F, Element Rb]",Cubic,Fm-3m,10,Cs2 Rb1 As1 F6,6.0,1
mp-1112131,Cs2RbAsI6,-1.188786892431035,4,"[Element As, Element Cs, Element I, Element Rb]",Cubic,Fm-3m,10,Cs2 Rb1 As1 I6,6.0,1
mp-1112524,Cs2RbAuBr6,-1.374250371681034,4,"[Element Au, Element Br, Element Cs, Element Rb]",Cubic,Fm-3m,10,Cs2 Rb1 Au1 Br6,6.0,1
mp-1112523,Cs2RbAuCl6,-1.593291858681035,4,"[Element Au, Element Cl, Element Cs, Element Rb]",Cubic,Fm-3m,10,Cs2 Rb1 Au1 Cl6,6.0,1
mp-1111977,Cs2RbAuF6,-2.327837465681035,4,"[Element Au, Element Cs, Element F, Element Rb]",Cubic,Fm-3m,10,Cs2 Rb1 Au1 F6,6.0,1
mp-1112132,Cs2RbBiBr6,-1.706946280681034,4,"[Element Bi, Element Br, Element Cs, Element Rb]",Cubic,Fm-3m,10,Cs2 Rb1 Bi1 Br6,6.0,1
mp-1112129,Cs2RbBiCl6,-1.975469918681034,4,"[Element Bi, Element Cl, Element Cs, Element Rb]",Cubic,Fm-3m,10,Cs2 Rb1 Bi1 Cl6,6.0,1
mp-559695,Cs2RbBiF6,-2.9101303966810352,4,"[Element Bi, Element Cs, Element F, Element Rb]",Cubic,Fm-3m,10,Cs2 Rb1 Bi1 F6,6.0,1
mp-1112161,Cs2RbBiI6,-1.309371944681035,4,"[Element Bi, Element Cs, Element I, Element Rb]",Cubic,Fm-3m,10,Cs2 Rb1 Bi1 I6,6.0,1
mp-1112520,Cs2RbCeCl6,-2.462440544681034,4,"[Element Ce, Element Cl, Element Cs, Element Rb]",Cubic,Fm-3m,10,Cs2 Rb1 Ce1 Cl6,6.0,1
mp-1206535,Cs2RbCuF6,-2.554806225681035,4,"[Element Cs, Element Cu, Element F, Element Rb]",Cubic,Fm-3m,10,Cs2 Rb1 Cu1 F6,6.0,1
mp-1112130,Cs2RbDyCl6,-2.500930817847701,4,"[Element Cl, Element Cs, Element Dy, Element Rb]",Cubic,Fm-3m,10,Cs2 Rb1 Dy1 Cl6,6.0,1
mp-1112127,Cs2RbErCl6,-2.504624538681034,4,"[Element Cl, Element Cs, Element Er, Element Rb]",Cubic,Fm-3m,10,Cs2 Rb1 Er1 Cl6,6.0,1
mp-1112519,Cs2RbEuCl6,-2.303289740181035,4,"[Element Cl, Element Cs, Element Eu, Element Rb]",Cubic,Fm-3m,10,Cs2 Rb1 Eu1 Cl6,6.0,1
mp-1112167,Cs2RbFeF6,-2.925841278681035,4,"[Element Cs, Element F, Element Fe, Element Rb]",Cubic,Fm-3m,10,Cs2 Rb1 Fe1 F6,6.0,1
mp-1112518,Cs2RbGaBr6,-1.694576735431034,4,"[Element Br, Element Cs, Element Ga, Element Rb]",Cubic,Fm-3m,10,Cs2 Rb1 Ga1 Br6,6.0,1
mp-1112517,Cs2RbGaCl6,-2.000220792431034,4,"[Element Cl, Element Cs, Element Ga, Element Rb]",Cubic,Fm-3m,10,Cs2 Rb1 Ga1 Cl6,6.0,1
mp-989618,Cs2RbGaF6,-3.055141840431035,4,"[Element Cs, Element F, Element Ga, Element Rb]",Cubic,Fm-3m,10,Cs2 Rb1 Ga1 F6,6.0,1
mp-1112155,Cs2RbGaI6,-1.260102767431034,4,"[Element Cs, Element Ga, Element I, Element Rb]",Cubic,Fm-3m,10,Cs2 Rb1 Ga1 I6,6.0,1
mp-1112516,Cs2RbGdCl6,-2.4941379476810353,4,"[Element Cl, Element Cs, Element Gd, Element Rb]",Cubic,Fm-3m,10,Cs2 Rb1 Gd1 Cl6,6.0,1
mp-996941,Cs2RbInBr6,-1.7372945553477002,4,"[Element Br, Element Cs, Element In, Element Rb]",Cubic,Fm-3m,10,Cs2 Rb1 In1 Br6,6.0,1
mp-1112125,Cs2RbInCl6,-2.026760652347701,4,"[Element Cl, Element Cs, Element In, Element Rb]",Cubic,Fm-3m,10,Cs2 Rb1 In1 Cl6,6.0,1
mp-989605,Cs2RbInF6,-2.987577245347701,4,"[Element Cs, Element F, Element In, Element Rb]",Cubic,Fm-3m,10,Cs2 Rb1 In1 F6,6.0,1
mp-1112521,Cs2RbInI6,-1.314679099347701,4,"[Element Cs, Element I, Element In, Element Rb]",Cubic,Fm-3m,10,Cs2 Rb1 In1 I6,6.0,1
mp-1111965,Cs2RbIrF6,-2.533594465681035,4,"[Element Cs, Element F, Element Ir, Element Rb]",Cubic,Fm-3m,10,Cs2 Rb1 Ir1 F6,6.0,1
mp-1112126,Cs2RbLaCl6,-2.510476549181034,4,"[Element Cl, Element Cs, Element La, Element Rb]",Cubic,Fm-3m,10,Cs2 Rb1 La1 Cl6,6.0,1
mp-1112515,Cs2RbLuCl6,-2.505049063347701,4,"[Element Cl, Element Cs, Element Lu, Element Rb]",Cubic,Fm-3m,10,Cs2 Rb1 Lu1 Cl6,6.0,1
mp-989519,Cs2RbNF6,-1.8170510231810342,4,"[Element Cs, Element F, Element N, Element Rb]",Cubic,Fm-3m,10,Cs2 Rb1 N1 F6,6.0,1
mp-1111966,Cs2RbNbF6,-2.990093562681034,4,"[Element Cs, Element F, Element Nb, Element Rb]",Cubic,Fm-3m,10,Cs2 Rb1 Nb1 F6,6.0,1
mp-1112123,Cs2RbNdCl6,-2.477359040431034,4,"[Element Cl, Element Cs, Element Nd, Element Rb]",Cubic,Fm-3m,10,Cs2 Rb1 Nd1 Cl6,6.0,1
mp-989525,Cs2RbPbF6,-2.752321537681034,4,"[Element Cs, Element F, Element Pb, Element Rb]",Cubic,Fm-3m,10,Cs2 Rb1 Pb1 F6,6.0,1
mp-1205550,Cs2RbPdF6,-2.474999849681034,4,"[Element Cs, Element F, Element Pd, Element Rb]",Cubic,Fm-3m,10,Cs2 Rb1 Pd1 F6,6.0,1
mp-1112124,Cs2RbPrCl6,-2.470465367847699,4,"[Element Cl, Element Cs, Element Pr, Element Rb]",Cubic,Fm-3m,10,Cs2 Rb1 Pr1 Cl6,6.0,1
mp-1112166,Cs2RbRuF6,-2.605896715681034,4,"[Element Cs, Element F, Element Rb, Element Ru]",Cubic,Fm-3m,10,Cs2 Rb1 Ru1 F6,6.0,1
mp-1112121,Cs2RbSbBr6,-1.6528725636810342,4,"[Element Br, Element Cs, Element Rb, Element Sb]",Cubic,Fm-3m,10,Cs2 Rb1 Sb1 Br6,6.0,1
mp-1112122,Cs2RbSbCl6,-1.919281520681034,4,"[Element Cl, Element Cs, Element Rb, Element Sb]",Cubic,Fm-3m,10,Cs2 Rb1 Sb1 Cl6,6.0,1
mp-1112513,Cs2RbSbF6,-2.872137725681034,4,"[Element Cs, Element F, Element Rb, Element Sb]",Cubic,Fm-3m,10,Cs2 Rb1 Sb1 F6,6.0,1
mp-1112512,Cs2RbSbI6,-1.2610733296810341,4,"[Element Cs, Element I, Element Rb, Element Sb]",Cubic,Fm-3m,10,Cs2 Rb1 Sb1 I6,6.0,1
mp-1112119,Cs2RbScBr6,-2.106820938181035,4,"[Element Br, Element Cs, Element Rb, Element Sc]",Cubic,Fm-3m,10,Cs2 Rb1 Sc1 Br6,6.0,1
mp-1112120,Cs2RbScCl6,-2.438831018181035,4,"[Element Cl, Element Cs, Element Rb, Element Sc]",Cubic,Fm-3m,10,Cs2 Rb1 Sc1 Cl6,6.0,1
mp-1111963,Cs2RbScF6,-3.554173583181034,4,"[Element Cs, Element F, Element Rb, Element Sc]",Cubic,Fm-3m,10,Cs2 Rb1 Sc1 F6,6.0,1
mp-1112117,Cs2RbScI6,-1.633877158181035,4,"[Element Cs, Element I, Element Rb, Element Sc]",Cubic,Fm-3m,10,Cs2 Rb1 Sc1 I6,6.0,1
mp-1112118,Cs2RbSmCl6,-2.486713688181034,4,"[Element Cl, Element Cs, Element Rb, Element Sm]",Cubic,Fm-3m,10,Cs2 Rb1 Sm1 Cl6,6.0,1
mp-1112511,Cs2RbTaF6,-2.926966403414368,4,"[Element Cs, Element F, Element Rb, Element Ta]",Cubic,Fm-3m,10,Cs2 Rb1 Ta1 F6,6.0,1
mp-1112115,Cs2RbTbCl6,-2.499792286347701,4,"[Element Cl, Element Cs, Element Rb, Element Tb]",Cubic,Fm-3m,10,Cs2 Rb1 Tb1 Cl6,6.0,1
mp-1112116,Cs2RbTlBr6,-1.589017462014368,4,"[Element Br, Element Cs, Element Rb, Element Tl]",Cubic,Fm-3m,10,Cs2 Rb1 Tl1 Br6,6.0,1
mp-1112004,Cs2RbTlCl6,-1.844958549014368,4,"[Element Cl, Element Cs, Element Rb, Element Tl]",Cubic,Fm-3m,10,Cs2 Rb1 Tl1 Cl6,6.0,1
mp-989567,Cs2RbTlF6,-2.702997824014368,4,"[Element Cs, Element F, Element Rb, Element Tl]",Cubic,Fm-3m,10,Cs2 Rb1 Tl1 F6,6.0,1
mp-1112510,Cs2RbTlI6,-1.202185388014368,4,"[Element Cs, Element I, Element Rb, Element Tl]",Cubic,Fm-3m,10,Cs2 Rb1 Tl1 I6,6.0,1
mp-1111479,Cs2RbTmCl6,-2.505352563681035,4,"[Element Cl, Element Cs, Element Rb, Element Tm]",Cubic,Fm-3m,10,Cs2 Rb1 Tm1 Cl6,6.0,1
mp-1112113,Cs2RbYBr6,-2.170296516681034,4,"[Element Br, Element Cs, Element Rb, Element Y]",Cubic,Fm-3m,10,Cs2 Rb1 Y1 Br6,6.0,1
mp-1112114,Cs2RbYCl6,-2.495544132681034,4,"[Element Cl, Element Cs, Element Rb, Element Y]",Cubic,Fm-3m,10,Cs2 Rb1 Y1 Cl6,6.0,1
mp-7886,Cs2RbYF6,-3.557187892681034,4,"[Element Cs, Element F, Element Rb, Element Y]",Cubic,Fm-3m,10,Cs2 Rb1 Y1 F6,6.0,1
mp-1112507,Cs2RbYI6,-1.700814875681035,4,"[Element Cs, Element I, Element Rb, Element Y]",Cubic,Fm-3m,10,Cs2 Rb1 Y1 I6,6.0,1
mp-1112594,Cs2RhAuF6,-2.037752590000005,4,"[Element Au, Element Cs, Element F, Element Rh]",Cubic,Fm-3m,10,Cs2 Rh1 Au1 F6,6.0,1
mp-1113110,Cs2RuAuF6,-1.995628077800003,4,"[Element Au, Element Cs, Element F, Element Ru]",Cubic,Fm-3m,10,Cs2 Ru1 Au1 F6,6.0,1
mp-1113393,Cs2SbAuBr6,-1.314688800931034,4,"[Element Au, Element Br, Element Cs, Element Sb]",Cubic,Fm-3m,10,Cs2 Sb1 Au1 Br6,6.0,1
mp-1112926,Cs2SbAuCl6,-1.5356811929310341,4,"[Element Au, Element Cl, Element Cs, Element Sb]",Cubic,Fm-3m,10,Cs2 Sb1 Au1 Cl6,6.0,1
mp-1113146,Cs2SbAuF6,-2.361835531931034,4,"[Element Au, Element Cs, Element F, Element Sb]",Cubic,Fm-3m,10,Cs2 Sb1 Au1 F6,6.0,1
mp-1112922,Cs2SbAuI6,-0.983709885931034,4,"[Element Au, Element Cs, Element I, Element Sb]",Cubic,Fm-3m,10,Cs2 Sb1 Au1 I6,6.0,1
mp-1113451,Cs2ScAgBr6,-1.834310511597701,4,"[Element Ag, Element Br, Element Cs, Element Sc]",Cubic,Fm-3m,10,Cs2 Sc1 Ag1 Br6,6.0,1
mp-1112622,Cs2ScAgCl6,-2.147683048597701,4,"[Element Ag, Element Cl, Element Cs, Element Sc]",Cubic,Fm-3m,10,Cs2 Sc1 Ag1 Cl6,6.0,1
mp-1113115,Cs2ScAgF6,-3.200004091597701,4,"[Element Ag, Element Cs, Element F, Element Sc]",Cubic,Fm-3m,10,Cs2 Sc1 Ag1 F6,6.0,1
mp-1112938,Cs2ScAgI6,-1.386986988597701,4,"[Element Ag, Element Cs, Element I, Element Sc]",Cubic,Fm-3m,10,Cs2 Sc1 Ag1 I6,6.0,1
mp-1112631,Cs2ScAuBr6,-1.716857844431035,4,"[Element Au, Element Br, Element Cs, Element Sc]",Cubic,Fm-3m,10,Cs2 Sc1 Au1 Br6,6.0,1
mp-1113213,Cs2ScAuCl6,-1.856329277499995,4,"[Element Au, Element Cl, Element Cs, Element Sc]",Cubic,Fm-3m,10,Cs2 Sc1 Au1 Cl6,6.0,1
mp-1112595,Cs2ScAuF6,-2.982187894666674,4,"[Element Au, Element Cs, Element F, Element Sc]",Cubic,Fm-3m,10,Cs2 Sc1 Au1 F6,6.0,1
mp-1112923,Cs2ScAuI6,-1.295620720431034,4,"[Element Au, Element Cs, Element I, Element Sc]",Cubic,Fm-3m,10,Cs2 Sc1 Au1 I6,6.0,1
mp-1113181,Cs2ScCuCl6,-1.945297614749999,4,"[Element Cl, Element Cs, Element Cu, Element Sc]",Cubic,Fm-3m,10,Cs2 Sc1 Cu1 Cl6,6.0,1
mp-1112591,Cs2ScCuF6,-3.116287667041669,4,"[Element Cs, Element Cu, Element F, Element Sc]",Cubic,Fm-3m,10,Cs2 Sc1 Cu1 F6,6.0,1
mp-1112630,Cs2ScHgBr6,-1.769550669681035,4,"[Element Br, Element Cs, Element Hg, Element Sc]",Cubic,Fm-3m,10,Cs2 Sc1 Hg1 Br6,6.0,1
mp-1113294,Cs2ScHgCl6,-2.066120647681035,4,"[Element Cl, Element Cs, Element Hg, Element Sc]",Cubic,Fm-3m,10,Cs2 Sc1 Hg1 Cl6,6.0,1
mp-1113142,Cs2ScHgF6,-3.124770418681035,4,"[Element Cs, Element F, Element Hg, Element Sc]",Cubic,Fm-3m,10,Cs2 Sc1 Hg1 F6,6.0,1
mp-1112899,Cs2ScHgI6,-1.339299918681035,4,"[Element Cs, Element Hg, Element I, Element Sc]",Cubic,Fm-3m,10,Cs2 Sc1 Hg1 I6,6.0,1
mp-1113520,Cs2ScInBr6,-1.897423124097701,4,"[Element Br, Element Cs, Element In, Element Sc]",Cubic,Fm-3m,10,Cs2 Sc1 In1 Br6,6.0,1
mp-1113067,Cs2ScInCl6,-2.073196200354171,4,"[Element Cl, Element Cs, Element In, Element Sc]",Cubic,Fm-3m,10,Cs2 Sc1 In1 Cl6,6.0,1
mp-1113138,Cs2ScInF6,-3.295475260916672,4,"[Element Cs, Element F, Element In, Element Sc]",Cubic,Fm-3m,10,Cs2 Sc1 In1 F6,6.0,1
mp-1113068,Cs2ScInI6,-1.443627259097701,4,"[Element Cs, Element I, Element In, Element Sc]",Cubic,Fm-3m,10,Cs2 Sc1 In1 I6,6.0,1
mp-1112493,Cs2ScTlBr6,-1.937039557764369,4,"[Element Br, Element Cs, Element Sc, Element Tl]",Cubic,Fm-3m,10,Cs2 Sc1 Tl1 Br6,6.0,1
mp-1112000,Cs2ScTlCl6,-2.255239010764369,4,"[Element Cl, Element Cs, Element Sc, Element Tl]",Cubic,Fm-3m,10,Cs2 Sc1 Tl1 Cl6,6.0,1
mp-1112337,Cs2ScTlF6,-3.352392971764368,4,"[Element Cs, Element F, Element Sc, Element Tl]",Cubic,Fm-3m,10,Cs2 Sc1 Tl1 F6,6.0,1
mp-1112484,Cs2ScTlI6,-1.481135688764369,4,"[Element Cs, Element I, Element Sc, Element Tl]",Cubic,Fm-3m,10,Cs2 Sc1 Tl1 I6,6.0,1
mp-1112920,Cs2SmAuCl6,-2.064388163431034,4,"[Element Au, Element Cl, Element Cs, Element Sm]",Cubic,Fm-3m,10,Cs2 Sm1 Au1 Cl6,6.0,1
mp-1111449,Cs2SmCuCl6,-2.026102832499998,4,"[Element Cl, Element Cs, Element Cu, Element Sm]",Cubic,Fm-3m,10,Cs2 Sm1 Cu1 Cl6,6.0,1
mp-1112334,Cs2TaAgBr6,-1.356169582831035,4,"[Element Ag, Element Br, Element Cs, Element Ta]",Cubic,Fm-3m,10,Cs2 Ta1 Ag1 Br6,6.0,1
mp-1113222,Cs2TaAgCl6,-1.6582391008310342,4,"[Element Ag, Element Cl, Element Cs, Element Ta]",Cubic,Fm-3m,10,Cs2 Ta1 Ag1 Cl6,6.0,1
mp-1114070,Cs2TaAgF6,-2.872888780253322,4,"[Element Ag, Element Cs, Element F, Element Ta]",Cubic,Fm-3m,10,Cs2 Ta1 Ag1 F6,6.0,1
mp-1112935,Cs2TaAgI6,-0.943102258831034,4,"[Element Ag, Element Cs, Element I, Element Ta]",Cubic,Fm-3m,10,Cs2 Ta1 Ag1 I6,6.0,1
mp-1113212,Cs2TaAuF6,-2.931536520543312,4,"[Element Au, Element Cs, Element F, Element Ta]",Cubic,Fm-3m,10,Cs2 Ta1 Au1 F6,6.0,1
mp-1112910,Cs2TaCuBr6,-1.293198004664368,4,"[Element Br, Element Cs, Element Cu, Element Ta]",Cubic,Fm-3m,10,Cs2 Ta1 Cu1 Br6,6.0,1
mp-1113336,Cs2TaCuCl6,-1.598200449664368,4,"[Element Cl, Element Cs, Element Cu, Element Ta]",Cubic,Fm-3m,10,Cs2 Ta1 Cu1 Cl6,6.0,1
mp-1111310,Cs2TaCuF6,-2.786545787586649,4,"[Element Cs, Element Cu, Element F, Element Ta]",Cubic,Fm-3m,10,Cs2 Ta1 Cu1 F6,6.0,1
mp-1112879,Cs2TaCuI6,-0.875837288664367,4,"[Element Cs, Element Cu, Element I, Element Ta]",Cubic,Fm-3m,10,Cs2 Ta1 Cu1 I6,6.0,1
mp-1112610,Cs2TaHgF6,-2.864282693914369,4,"[Element Cs, Element F, Element Hg, Element Ta]",Cubic,Fm-3m,10,Cs2 Ta1 Hg1 F6,6.0,1
mp-1112483,Cs2TaTlF6,-2.674347981733333,4,"[Element Cs, Element F, Element Ta, Element Tl]",Cubic,Fm-3m,10,Cs2 Ta1 Tl1 F6,6.0,1
mp-1112921,Cs2TbAuCl6,-2.074623368597698,4,"[Element Au, Element Cl, Element Cs, Element Tb]",Cubic,Fm-3m,10,Cs2 Tb1 Au1 Cl6,6.0,1
mp-1113207,Cs2TbCuCl6,-2.03379767004167,4,"[Element Cl, Element Cs, Element Cu, Element Tb]",Cubic,Fm-3m,10,Cs2 Tb1 Cu1 Cl6,6.0,1
mp-1113444,Cs2TlAgBr6,-1.351672621431034,4,"[Element Ag, Element Br, Element Cs, Element Tl]",Cubic,Fm-3m,10,Cs2 Tl1 Ag1 Br6,6.0,1
mp-1113442,Cs2TlAgCl6,-1.5787584944310251,4,"[Element Ag, Element Cl, Element Cs, Element Tl]",Cubic,Fm-3m,10,Cs2 Tl1 Ag1 Cl6,6.0,1
mp-1113150,Cs2TlAgF6,-2.3620012504310353,4,"[Element Ag, Element Cs, Element F, Element Tl]",Cubic,Fm-3m,10,Cs2 Tl1 Ag1 F6,6.0,1
mp-1112933,Cs2TlAgI6,-1.010044748431035,4,"[Element Ag, Element Cs, Element I, Element Tl]",Cubic,Fm-3m,10,Cs2 Tl1 Ag1 I6,6.0,1
mp-1112112,Cs2TlAsBr6,-1.421802531014368,4,"[Element As, Element Br, Element Cs, Element Tl]",Cubic,Fm-3m,10,Cs2 Tl1 As1 Br6,6.0,1
mp-1112502,Cs2TlAsCl6,-1.667370324014368,4,"[Element As, Element Cl, Element Cs, Element Tl]",Cubic,Fm-3m,10,Cs2 Tl1 As1 Cl6,6.0,1
mp-1112503,Cs2TlAsF6,-2.585479973014368,4,"[Element As, Element Cs, Element F, Element Tl]",Cubic,Fm-3m,10,Cs2 Tl1 As1 F6,6.0,1
mp-1112544,Cs2TlAsI6,-1.059115153014369,4,"[Element As, Element Cs, Element I, Element Tl]",Cubic,Fm-3m,10,Cs2 Tl1 As1 I6,6.0,1
mp-1112500,Cs2TlAuBr6,-1.295307690264369,4,"[Element Au, Element Br, Element Cs, Element Tl]",Cubic,Fm-3m,10,Cs2 Tl1 Au1 Br6,6.0,1
mp-1113536,Cs2TlAuCl6,-1.493798939264369,4,"[Element Au, Element Cl, Element Cs, Element Tl]",Cubic,Fm-3m,10,Cs2 Tl1 Au1 Cl6,6.0,1
mp-1112499,Cs2TlAuF6,-2.092772584333334,4,"[Element Au, Element Cs, Element F, Element Tl]",Cubic,Fm-3m,10,Cs2 Tl1 Au1 F6,6.0,1
mp-1113379,Cs2TlAuI6,-0.990864224264368,4,"[Element Au, Element Cs, Element I, Element Tl]",Cubic,Fm-3m,10,Cs2 Tl1 Au1 I6,6.0,1
mp-1112498,Cs2TlBiBr6,-1.549795573264369,4,"[Element Bi, Element Br, Element Cs, Element Tl]",Cubic,Fm-3m,10,Cs2 Tl1 Bi1 Br6,6.0,1
mp-1112109,Cs2TlBiCl6,-1.8018478402643692,4,"[Element Bi, Element Cl, Element Cs, Element Tl]",Cubic,Fm-3m,10,Cs2 Tl1 Bi1 Cl6,6.0,1
mp-557664,Cs2TlBiF6,-2.596629716500001,4,"[Element Bi, Element Cs, Element F, Element Tl]",Cubic,Fm-3m,10,Cs2 Tl1 Bi1 F6,6.0,1