material_id,pretty_formula,formation_energy_per_atom,num_elements,elements,crystal_system,space_group_symbol,nsites,composition,num_halogens,num_unique_halogen_types
mp-1112062,K2ScAuI6,-1.20918381895,4,"[Element Au, Element I, Element K, Element Sc]",Cubic,Fm-3m,10,K2 Sc1 Au1 I6,6.0,1
mp-1112159,K2ScCuCl6,-1.903441415916661,4,"[Element Cl, Element Cu, Element K, Element Sc]",Cubic,Fm-3m,10,K2 Sc1 Cu1 Cl6,6.0,1
mp-1112245,K2ScCuF6,-3.147014890949999,4,"[Element Cu, Element F, Element K, Element Sc]",Cubic,Fm-3m,10,K2 Sc1 Cu1 F6,6.0,1
mp-1111989,K2ScHgBr6,-1.6797311642000001,4,"[Element Br, Element Hg, Element K, Element Sc]",Cubic,Fm-3m,10,K2 Sc1 Hg1 Br6,6.0,1
mp-1111990,K2ScHgCl6,-1.824107541166664,4,"[Element Cl, Element Hg, Element K, Element Sc]",Cubic,Fm-3m,10,K2 Sc1 Hg1 Cl6,6.0,1
mp-1111931,K2ScHgF6,-3.0760175672,4,"[Element F, Element Hg, Element K, Element Sc]",Cubic,Fm-3m,10,K2 Sc1 Hg1 F6,6.0,1
mp-1112029,K2ScHgI6,-1.241310640200001,4,"[Element Hg, Element I, Element K, Element Sc]",Cubic,Fm-3m,10,K2 Sc1 Hg1 I6,6.0,1
mp-1112015,K2ScInBr6,-1.8008301506166662,4,"[Element Br, Element In, Element K, Element Sc]",Cubic,Fm-3m,10,K2 Sc1 In1 Br6,6.0,1
mp-1112180,K2ScInCl6,-2.121865569616666,4,"[Element Cl, Element In, Element K, Element Sc]",Cubic,Fm-3m,10,K2 Sc1 In1 Cl6,6.0,1
mp-1112179,K2ScInF6,-3.262885409616666,4,"[Element F, Element In, Element K, Element Sc]",Cubic,Fm-3m,10,K2 Sc1 In1 F6,6.0,1
mp-1112016,K2ScInI6,-1.341102198616666,4,"[Element I, Element In, Element K, Element Sc]",Cubic,Fm-3m,10,K2 Sc1 In1 I6,6.0,1
mp-1111193,K2ScTlBr6,-1.8382227062833332,4,"[Element Br, Element K, Element Sc, Element Tl]",Cubic,Fm-3m,10,K2 Sc1 Tl1 Br6,6.0,1
mp-1111134,K2ScTlCl6,-2.161159312283334,4,"[Element Cl, Element K, Element Sc, Element Tl]",Cubic,Fm-3m,10,K2 Sc1 Tl1 Cl6,6.0,1
mp-1111416,K2ScTlF6,-3.290836186283334,4,"[Element F, Element K, Element Sc, Element Tl]",Cubic,Fm-3m,10,K2 Sc1 Tl1 F6,6.0,1
mp-1112087,K2SmAgCl6,-1.99440292225,4,"[Element Ag, Element Cl, Element K, Element Sm]",Cubic,Fm-3m,10,K2 Sm1 Ag1 Cl6,6.0,1
mp-1112063,K2SmAuCl6,-1.9821492829499991,4,"[Element Au, Element Cl, Element K, Element Sm]",Cubic,Fm-3m,10,K2 Sm1 Au1 Cl6,6.0,1
mp-1112218,K2SmCuCl6,-1.9575590557499971,4,"[Element Cl, Element Cu, Element K, Element Sm]",Cubic,Fm-3m,10,K2 Sm1 Cu1 Cl6,6.0,1
mp-1112085,K2TaAgBr6,-1.285183975349999,4,"[Element Ag, Element Br, Element K, Element Ta]",Cubic,Fm-3m,10,K2 Ta1 Ag1 Br6,6.0,1
mp-1112083,K2TaAgCl6,-1.597737288349999,4,"[Element Ag, Element Cl, Element K, Element Ta]",Cubic,Fm-3m,10,K2 Ta1 Ag1 Cl6,6.0,1
mp-1110857,K2TaAgF6,-2.656148408349999,4,"[Element Ag, Element F, Element K, Element Ta]",Cubic,Fm-3m,10,K2 Ta1 Ag1 F6,6.0,1
mp-1110948,K2TaAgI6,-0.8605439233499991,4,"[Element Ag, Element I, Element K, Element Ta]",Cubic,Fm-3m,10,K2 Ta1 Ag1 I6,6.0,1
mp-1112417,K2TaAuF6,-2.7032767431833333,4,"[Element Au, Element F, Element K, Element Ta]",Cubic,Fm-3m,10,K2 Ta1 Au1 F6,6.0,1
mp-1112217,K2TaCuBr6,-1.2404970571833331,4,"[Element Br, Element Cu, Element K, Element Ta]",Cubic,Fm-3m,10,K2 Ta1 Cu1 Br6,6.0,1
mp-1112377,K2TaCuCl6,-1.564795610183333,4,"[Element Cl, Element Cu, Element K, Element Ta]",Cubic,Fm-3m,10,K2 Ta1 Cu1 Cl6,6.0,1
mp-1110903,K2TaCuI6,-0.8036536641833331,4,"[Element Cu, Element I, Element K, Element Ta]",Cubic,Fm-3m,10,K2 Ta1 Cu1 I6,6.0,1
mp-1112194,K2TaHgF6,-2.771948624433334,4,"[Element F, Element Hg, Element K, Element Ta]",Cubic,Fm-3m,10,K2 Ta1 Hg1 F6,6.0,1
mp-1111415,K2TaTlF6,-2.668923663516667,4,"[Element F, Element K, Element Ta, Element Tl]",Cubic,Fm-3m,10,K2 Ta1 Tl1 F6,6.0,1
mp-1112446,K2TbAgCl6,-2.135362085283332,4,"[Element Ag, Element Cl, Element K, Element Tb]",Cubic,Fm-3m,10,K2 Tb1 Ag1 Cl6,6.0,1
mp-1112060,K2TbAuCl6,-1.996172140116665,4,"[Element Au, Element Cl, Element K, Element Tb]",Cubic,Fm-3m,10,K2 Tb1 Au1 Cl6,6.0,1
mp-1111991,K2TbCuCl6,-1.9724441962499952,4,"[Element Cl, Element Cu, Element K, Element Tb]",Cubic,Fm-3m,10,K2 Tb1 Cu1 Cl6,6.0,1
mp-1112274,K2TiAgF6,-2.909961143949999,4,"[Element Ag, Element F, Element K, Element Ti]",Cubic,Fm-3m,10,K2 Ti1 Ag1 F6,6.0,1
mp-1111957,K2TiAuF6,-2.8077236937833323,4,"[Element Au, Element F, Element K, Element Ti]",Cubic,Fm-3m,10,K2 Ti1 Au1 F6,6.0,1
mp-1112244,K2TiCuF6,-2.889731656783333,4,"[Element Cu, Element F, Element K, Element Ti]",Cubic,Fm-3m,10,K2 Ti1 Cu1 F6,6.0,1
mp-1112360,K2TiHgF6,-3.041700829033333,4,"[Element F, Element Hg, Element K, Element Ti]",Cubic,Fm-3m,10,K2 Ti1 Hg1 F6,6.0,1
mp-1111414,K2TiTlF6,-3.031086850116667,4,"[Element F, Element K, Element Ti, Element Tl]",Cubic,Fm-3m,10,K2 Ti1 Tl1 F6,6.0,1
mp-1112445,K2TlAgBr6,-1.27055994995,4,"[Element Ag, Element Br, Element K, Element Tl]",Cubic,Fm-3m,10,K2 Tl1 Ag1 Br6,6.0,1
mp-1112081,K2TlAgCl6,-1.50777397895,4,"[Element Ag, Element Cl, Element K, Element Tl]",Cubic,Fm-3m,10,K2 Tl1 Ag1 Cl6,6.0,1
mp-1112272,K2TlAgF6,-2.315529212949999,4,"[Element Ag, Element F, Element K, Element Tl]",Cubic,Fm-3m,10,K2 Tl1 Ag1 F6,6.0,1
mp-1112078,K2TlAgI6,-0.917855138949999,4,"[Element Ag, Element I, Element K, Element Tl]",Cubic,Fm-3m,10,K2 Tl1 Ag1 I6,6.0,1
mp-1111589,K2TlAsBr6,-1.328670382533333,4,"[Element As, Element Br, Element K, Element Tl]",Cubic,Fm-3m,10,K2 Tl1 As1 Br6,6.0,1
mp-1111588,K2TlAsCl6,-1.576626199533334,4,"[Element As, Element Cl, Element K, Element Tl]",Cubic,Fm-3m,10,K2 Tl1 As1 Cl6,6.0,1
mp-1111426,K2TlAsF6,-2.523982153533333,4,"[Element As, Element F, Element K, Element Tl]",Cubic,Fm-3m,10,K2 Tl1 As1 F6,6.0,1
mp-1111200,K2TlAsI6,-0.9592125675333341,4,"[Element As, Element I, Element K, Element Tl]",Cubic,Fm-3m,10,K2 Tl1 As1 I6,6.0,1
mp-1111585,K2TlAuBr6,-1.212922075783333,4,"[Element Au, Element Br, Element K, Element Tl]",Cubic,Fm-3m,10,K2 Tl1 Au1 Br6,6.0,1
mp-1112414,K2TlAuCl6,-1.420444628783334,4,"[Element Au, Element Cl, Element K, Element Tl]",Cubic,Fm-3m,10,K2 Tl1 Au1 Cl6,6.0,1
mp-1111378,K2TlAuF6,-2.145717286783333,4,"[Element Au, Element F, Element K, Element Tl]",Cubic,Fm-3m,10,K2 Tl1 Au1 F6,6.0,1
mp-1112333,K2TlAuI6,-0.894728185783334,4,"[Element Au, Element I, Element K, Element Tl]",Cubic,Fm-3m,10,K2 Tl1 Au1 I6,6.0,1
mp-1111569,K2TlBiF6,-2.632752007783334,4,"[Element Bi, Element F, Element K, Element Tl]",Cubic,Fm-3m,10,K2 Tl1 Bi1 F6,6.0,1
mp-1111102,K2TlCoF6,-2.472797150783334,4,"[Element Co, Element F, Element K, Element Tl]",Cubic,Fm-3m,10,K2 Tl1 Co1 F6,6.0,1
mp-1111376,K2TlCrF6,-2.842726659783334,4,"[Element Cr, Element F, Element K, Element Tl]",Cubic,Fm-3m,10,K2 Tl1 Cr1 F6,6.0,1
mp-1112216,K2TlCuBr6,-1.269294586783333,4,"[Element Br, Element Cu, Element K, Element Tl]",Cubic,Fm-3m,10,K2 Tl1 Cu1 Br6,6.0,1
mp-1111969,K2TlCuCl6,-1.518696923783333,4,"[Element Cl, Element Cu, Element K, Element Tl]",Cubic,Fm-3m,10,K2 Tl1 Cu1 Cl6,6.0,1
mp-1112168,K2TlCuF6,-2.377329549783334,4,"[Element Cu, Element F, Element K, Element Tl]",Cubic,Fm-3m,10,K2 Tl1 Cu1 F6,6.0,1
mp-1111373,K2TlFeF6,-2.6736153767833333,4,"[Element F, Element Fe, Element K, Element Tl]",Cubic,Fm-3m,10,K2 Tl1 Fe1 F6,6.0,1
mp-1111137,K2TlGaBr6,-1.446393787533333,4,"[Element Br, Element Ga, Element K, Element Tl]",Cubic,Fm-3m,10,K2 Tl1 Ga1 Br6,6.0,1
mp-1111581,K2TlGaCl6,-1.7399861215333332,4,"[Element Cl, Element Ga, Element K, Element Tl]",Cubic,Fm-3m,10,K2 Tl1 Ga1 Cl6,6.0,1
mp-1111372,K2TlGaF6,-2.806150681533334,4,"[Element F, Element Ga, Element K, Element Tl]",Cubic,Fm-3m,10,K2 Tl1 Ga1 F6,6.0,1
mp-1111197,K2TlGaI6,-1.026607629533334,4,"[Element Ga, Element I, Element K, Element Tl]",Cubic,Fm-3m,10,K2 Tl1 Ga1 I6,6.0,1
mp-1112026,K2TlHgBr6,-1.289060817033334,4,"[Element Br, Element Hg, Element K, Element Tl]",Cubic,Fm-3m,10,K2 Tl1 Hg1 Br6,6.0,1
mp-1112027,K2TlHgCl6,-1.510334895033334,4,"[Element Cl, Element Hg, Element K, Element Tl]",Cubic,Fm-3m,10,K2 Tl1 Hg1 Cl6,6.0,1
mp-1111956,K2TlHgF6,-2.295710245033334,4,"[Element F, Element Hg, Element K, Element Tl]",Cubic,Fm-3m,10,K2 Tl1 Hg1 F6,6.0,1
mp-1112024,K2TlHgI6,-0.9416116230333341,4,"[Element Hg, Element I, Element K, Element Tl]",Cubic,Fm-3m,10,K2 Tl1 Hg1 I6,6.0,1
mp-1111578,K2TlInBr6,-1.47880849545,4,"[Element Br, Element In, Element K, Element Tl]",Cubic,Fm-3m,10,K2 Tl1 In1 Br6,6.0,1
mp-1111577,K2TlInCl6,-1.75523488945,4,"[Element Cl, Element In, Element K, Element Tl]",Cubic,Fm-3m,10,K2 Tl1 In1 Cl6,6.0,1
mp-1111423,K2TlInF6,-2.721125653449999,4,"[Element F, Element In, Element K, Element Tl]",Cubic,Fm-3m,10,K2 Tl1 In1 F6,6.0,1
mp-1111269,K2TlInI6,-1.07114346745,4,"[Element I, Element In, Element K, Element Tl]",Cubic,Fm-3m,10,K2 Tl1 In1 I6,6.0,1
mp-1111422,K2TlIrF6,-2.275359082783333,4,"[Element F, Element Ir, Element K, Element Tl]",Cubic,Fm-3m,10,K2 Tl1 Ir1 F6,6.0,1
mp-1111419,K2TlMoF6,-2.689483886783335,4,"[Element F, Element K, Element Mo, Element Tl]",Cubic,Fm-3m,10,K2 Tl1 Mo1 F6,6.0,1
mp-1111264,K2TlNiF6,-2.469518316783334,4,"[Element F, Element K, Element Ni, Element Tl]",Cubic,Fm-3m,10,K2 Tl1 Ni1 F6,6.0,1
mp-1111369,K2TlPdF6,-2.2623155237833332,4,"[Element F, Element K, Element Pd, Element Tl]",Cubic,Fm-3m,10,K2 Tl1 Pd1 F6,6.0,1
mp-1111368,K2TlRhF6,-2.371195808783334,4,"[Element F, Element K, Element Rh, Element Tl]",Cubic,Fm-3m,10,K2 Tl1 Rh1 F6,6.0,1
mp-1111417,K2TlRuF6,-2.348355317783333,4,"[Element F, Element K, Element Ru, Element Tl]",Cubic,Fm-3m,10,K2 Tl1 Ru1 F6,6.0,1
mp-1111195,K2TlSbBr6,-1.396971674783333,4,"[Element Br, Element K, Element Sb, Element Tl]",Cubic,Fm-3m,10,K2 Tl1 Sb1 Br6,6.0,1
mp-1111196,K2TlSbCl6,-1.649728586783334,4,"[Element Cl, Element K, Element Sb, Element Tl]",Cubic,Fm-3m,10,K2 Tl1 Sb1 Cl6,6.0,1
mp-1111125,K2TlSbF6,-2.603626546783334,4,"[Element F, Element K, Element Sb, Element Tl]",Cubic,Fm-3m,10,K2 Tl1 Sb1 F6,6.0,1
mp-1111367,K2TlVF6,-2.808479016783334,4,"[Element F, Element K, Element Tl, Element V]",Cubic,Fm-3m,10,K2 Tl1 V1 F6,6.0,1
mp-1112443,K2TmAgCl6,-2.006621741399999,4,"[Element Ag, Element Cl, Element K, Element Tm]",Cubic,Fm-3m,10,K2 Tm1 Ag1 Cl6,6.0,1
mp-1112061,K2TmAuCl6,-2.00241253745,4,"[Element Au, Element Cl, Element K, Element Tm]",Cubic,Fm-3m,10,K2 Tm1 Au1 Cl6,6.0,1
mp-1112215,K2TmCuCl6,-1.9673442948999962,4,"[Element Cl, Element Cu, Element K, Element Tm]",Cubic,Fm-3m,10,K2 Tm1 Cu1 Cl6,6.0,1
mp-1112271,K2VAgF6,-2.688357245616667,4,"[Element Ag, Element F, Element K, Element V]",Cubic,Fm-3m,10,K2 V1 Ag1 F6,6.0,1
mp-1112253,K2VAuF6,-2.49830392445,4,"[Element Au, Element F, Element K, Element V]",Cubic,Fm-3m,10,K2 V1 Au1 F6,6.0,1
mp-1112011,K2VHgF6,-2.6270630087000013,4,"[Element F, Element Hg, Element K, Element V]",Cubic,Fm-3m,10,K2 V1 Hg1 F6,6.0,1
mp-1110911,K2YAgBr6,-1.815570857616666,4,"[Element Ag, Element Br, Element K, Element Y]",Cubic,Fm-3m,10,K2 Y1 Ag1 Br6,6.0,1
mp-1110872,K2YAgCl6,-2.012176435999998,4,"[Element Ag, Element Cl, Element K, Element Y]",Cubic,Fm-3m,10,K2 Y1 Ag1 Cl6,6.0,1
mp-1110847,K2YAgF6,-3.154359353616666,4,"[Element Ag, Element F, Element K, Element Y]",Cubic,Fm-3m,10,K2 Y1 Ag1 F6,6.0,1
mp-1110947,K2YAgI6,-1.361794086616666,4,"[Element Ag, Element I, Element K, Element Y]",Cubic,Fm-3m,10,K2 Y1 Ag1 I6,6.0,1
mp-1112058,K2YAuBr6,-1.695225902449999,4,"[Element Au, Element Br, Element K, Element Y]",Cubic,Fm-3m,10,K2 Y1 Au1 Br6,6.0,1
mp-1112059,K2YAuCl6,-1.991902996449999,4,"[Element Au, Element Cl, Element K, Element Y]",Cubic,Fm-3m,10,K2 Y1 Au1 Cl6,6.0,1
mp-1112320,K2YAuF6,-2.965587578449999,4,"[Element Au, Element F, Element K, Element Y]",Cubic,Fm-3m,10,K2 Y1 Au1 F6,6.0,1
mp-1112056,K2YAuI6,-1.2682339684500001,4,"[Element Au, Element I, Element K, Element Y]",Cubic,Fm-3m,10,K2 Y1 Au1 I6,6.0,1
mp-1112034,K2YCuBr6,-1.77168778445,4,"[Element Br, Element Cu, Element K, Element Y]",Cubic,Fm-3m,10,K2 Y1 Cu1 Br6,6.0,1
mp-1112158,K2YCuCl6,-1.9743445044999932,4,"[Element Cl, Element Cu, Element K, Element Y]",Cubic,Fm-3m,10,K2 Y1 Cu1 Cl6,6.0,1
mp-1112242,K2YCuF6,-3.125481663449999,4,"[Element Cu, Element F, Element K, Element Y]",Cubic,Fm-3m,10,K2 Y1 Cu1 F6,6.0,1
mp-1110942,K2YCuI6,-1.30573541945,4,"[Element Cu, Element I, Element K, Element Y]",Cubic,Fm-3m,10,K2 Y1 Cu1 I6,6.0,1
mp-1112025,K2YHgBr6,-1.728962646699999,4,"[Element Br, Element Hg, Element K, Element Y]",Cubic,Fm-3m,10,K2 Y1 Hg1 Br6,6.0,1
mp-1112193,K2YHgCl6,-1.894638868750003,4,"[Element Cl, Element Hg, Element K, Element Y]",Cubic,Fm-3m,10,K2 Y1 Hg1 Cl6,6.0,1
mp-1112192,K2YHgF6,-3.0640209197,4,"[Element F, Element Hg, Element K, Element Y]",Cubic,Fm-3m,10,K2 Y1 Hg1 F6,6.0,1
mp-1112022,K2YHgI6,-1.2965844967,4,"[Element Hg, Element I, Element K, Element Y]",Cubic,Fm-3m,10,K2 Y1 Hg1 I6,6.0,1
mp-1111679,K2YInCl6,-2.166495664116666,4,"[Element Cl, Element In, Element K, Element Y]",Cubic,Fm-3m,10,K2 Y1 In1 Cl6,6.0,1
mp-1111119,K2YInF6,-3.251672525116666,4,"[Element F, Element In, Element K, Element Y]",Cubic,Fm-3m,10,K2 Y1 In1 F6,6.0,1
mp-1111194,K2YTlBr6,-1.8929744717833341,4,"[Element Br, Element K, Element Tl, Element Y]",Cubic,Fm-3m,10,K2 Y1 Tl1 Br6,6.0,1
mp-1111122,K2YTlF6,-3.279106814783334,4,"[Element F, Element K, Element Tl, Element Y]",Cubic,Fm-3m,10,K2 Y1 Tl1 F6,6.0,1
mp-1111185,K3AlBr6,-1.758407436174999,3,"[Element Al, Element Br, Element K]",Cubic,Fm-3m,10,K3 Al1 Br6,6.0,1
mp-1111502,K3AlCl6,-2.120414557174999,3,"[Element Al, Element Cl, Element K]",Cubic,Fm-3m,10,K3 Al1 Cl6,6.0,1
mp-1095079,K3AlF6,-3.402247983774997,3,"[Element Al, Element F, Element K]",Cubic,Fm-3m,10,K3 Al1 F6,6.0,1
mp-1110930,K3AlI6,-1.266776382175,3,"[Element Al, Element I, Element K]",Cubic,Fm-3m,10,K3 Al1 I6,6.0,1
mp-1110929,K3AsBr6,-1.483631004924999,3,"[Element As, Element Br, Element K]",Cubic,Fm-3m,10,K3 As1 Br6,6.0,1
mp-1111182,K3AsCl6,-1.7568540909250001,3,"[Element As, Element Cl, Element K]",Cubic,Fm-3m,10,K3 As1 Cl6,6.0,1
mp-1111501,K3AsF6,-2.750747019925,3,"[Element As, Element F, Element K]",Cubic,Fm-3m,10,K3 As1 F6,6.0,1
mp-1111178,K3AsI6,-1.090858318924999,3,"[Element As, Element I, Element K]",Cubic,Fm-3m,10,K3 As1 I6,6.0,1
mp-1111500,K3AuBr6,-1.287507607174999,3,"[Element Au, Element Br, Element K]",Cubic,Fm-3m,10,K3 Au1 Br6,6.0,1
mp-1111499,K3AuCl6,-1.516515448174999,3,"[Element Au, Element Cl, Element K]",Cubic,Fm-3m,10,K3 Au1 Cl6,6.0,1
mp-1111498,K3AuF6,-2.287342582175,3,"[Element Au, Element F, Element K]",Cubic,Fm-3m,10,K3 Au1 F6,6.0,1
mp-1110928,K3BiBr6,-1.6112242911749992,3,"[Element Bi, Element Br, Element K]",Cubic,Fm-3m,10,K3 Bi1 Br6,6.0,1
mp-1110887,K3BiCl6,-1.6806278021249992,3,"[Element Bi, Element Cl, Element K]",Cubic,Fm-3m,10,K3 Bi1 Cl6,6.0,1
mp-1110846,K3BiF6,-2.857933783175,3,"[Element Bi, Element F, Element K]",Cubic,Fm-3m,10,K3 Bi1 F6,6.0,1
mp-1110960,K3BiI6,-1.204833895175,3,"[Element Bi, Element I, Element K]",Cubic,Fm-3m,10,K3 Bi1 I6,6.0,1
mp-1110927,K3CeBr6,-2.053622275174999,3,"[Element Br, Element Ce, Element K]",Cubic,Fm-3m,10,K3 Ce1 Br6,6.0,1
mp-1111177,K3CeCl6,-2.290435123125,3,"[Element Ce, Element Cl, Element K]",Cubic,Fm-3m,10,K3 Ce1 Cl6,6.0,1
mp-1110959,K3CeI6,-1.5853532041749991,3,"[Element Ce, Element I, Element K]",Cubic,Fm-3m,10,K3 Ce1 I6,6.0,1
mp-1111145,K3CoF6,-2.683251744175,3,"[Element Co, Element F, Element K]",Cubic,Fm-3m,10,K3 Co1 F6,6.0,1
mp-1111695,K3CrF6,-3.080177567174998,3,"[Element Cr, Element F, Element K]",Cubic,Fm-3m,10,K3 Cr1 F6,6.0,1
mp-1111175,K3DyCl6,-2.306264969875001,3,"[Element Cl, Element Dy, Element K]",Cubic,Fm-3m,10,K3 Dy1 Cl6,6.0,1
mp-1211650,K3DyF6,-3.527994018341665,3,"[Element Dy, Element F, Element K]",Cubic,Fm-3m,10,K3 Dy1 F6,6.0,1
mp-1111493,K3ErCl6,-2.301670565208327,3,"[Element Cl, Element Er, Element K]",Cubic,Fm-3m,10,K3 Er1 Cl6,6.0,1
mp-1206189,K3ErF6,-3.546241612175,3,"[Element Er, Element F, Element K]",Cubic,Fm-3m,10,K3 Er1 F6,6.0,1
mp-1111492,K3EuCl6,-2.2180309026750002,3,"[Element Cl, Element Eu, Element K]",Cubic,Fm-3m,10,K3 Eu1 Cl6,6.0,1
mp-1205962,K3EuF6,-3.2453438996750013,3,"[Element Eu, Element F, Element K]",Cubic,Fm-3m,10,K3 Eu1 F6,6.0,1
mp-1111491,K3FeF6,-2.90860409517499,3,"[Element F, Element Fe, Element K]",Cubic,Fm-3m,10,K3 Fe1 F6,6.0,1
mp-1110886,K3GaBr6,-1.612923751924999,3,"[Element Br, Element Ga, Element K]",Cubic,Fm-3m,10,K3 Ga1 Br6,6.0,1
mp-1110859,K3GaCl6,-1.931998244925,3,"[Element Cl, Element Ga, Element K]",Cubic,Fm-3m,10,K3 Ga1 Cl6,6.0,1
mp-1111080,K3GaF6,-3.043798041924998,3,"[Element F, Element Ga, Element K]",Cubic,Fm-3m,10,K3 Ga1 F6,6.0,1
mp-1110958,K3GaI6,-1.163965700925,3,"[Element Ga, Element I, Element K]",Cubic,Fm-3m,10,K3 Ga1 I6,6.0,1
mp-1111176,K3GdCl6,-2.289713767624998,3,"[Element Cl, Element Gd, Element K]",Cubic,Fm-3m,10,K3 Gd1 Cl6,6.0,1
mp-1206199,K3HoCl6,-2.303148899374997,3,"[Element Cl, Element Ho, Element K]",Cubic,Fm-3m,10,K3 Ho1 Cl6,6.0,1
mp-1206658,K3HoF6,-3.535352223674999,3,"[Element F, Element Ho, Element K]",Cubic,Fm-3m,10,K3 Ho1 F6,6.0,1
mp-1111490,K3InBr6,-1.648848100841666,3,"[Element Br, Element In, Element K]",Cubic,Fm-3m,10,K3 In1 Br6,6.0,1
mp-1111173,K3InCl6,-1.9491021458416662,3,"[Element Cl, Element In, Element K]",Cubic,Fm-3m,10,K3 In1 Cl6,6.0,1
mp-1111489,K3InF6,-2.952329527841666,3,"[Element F, Element In, Element K]",Cubic,Fm-3m,10,K3 In1 F6,6.0,1
mp-1111459,K3InI6,-1.214112946841667,3,"[Element I, Element In, Element K]",Cubic,Fm-3m,10,K3 In1 I6,6.0,1
mp-1111425,K3IrF6,-2.506927969175,3,"[Element F, Element Ir, Element K]",Cubic,Fm-3m,10,K3 Ir1 F6,6.0,1
mp-1111424,K3LaCl6,-2.310153578625005,3,"[Element Cl, Element K, Element La]",Cubic,Fm-3m,10,K3 La1 Cl6,6.0,1
mp-1111421,K3LuCl6,-2.291047965291666,3,"[Element Cl, Element K, Element Lu]",Cubic,Fm-3m,10,K3 Lu1 Cl6,6.0,1
mp-1205912,K3LuF6,-3.572912842841666,3,"[Element F, Element K, Element Lu]",Cubic,Fm-3m,10,K3 Lu1 F6,6.0,1
mp-1111694,K3MnF6,-2.900522648968103,3,"[Element F, Element K, Element Mn]",Cubic,Fm-3m,10,K3 Mn1 F6,6.0,1
mp-1110884,K3MoBr6,-1.528057461174999,3,"[Element Br, Element K, Element Mo]",Cubic,Fm-3m,10,K3 Mo1 Br6,6.0,1
mp-1110883,K3MoCl6,-1.736652194374997,3,"[Element Cl, Element K, Element Mo]",Cubic,Fm-3m,10,K3 Mo1 Cl6,6.0,1
mp-553896,K3MoF6,-2.927756605174998,3,"[Element F, Element K, Element Mo]",Cubic,Fm-3m,10,K3 Mo1 F6,6.0,1
mp-1110957,K3MoI6,-1.091496250175,3,"[Element I, Element K, Element Mo]",Cubic,Fm-3m,10,K3 Mo1 I6,6.0,1
mp-1111115,K3NbF6,-2.952687989174999,3,"[Element F, Element K, Element Nb]",Cubic,Fm-3m,10,K3 Nb1 F6,6.0,1
mp-1110926,K3NdBr6,-2.067253847924999,3,"[Element Br, Element K, Element Nd]",Cubic,Fm-3m,10,K3 Nd1 Br6,6.0,1
mp-1110882,K3NdCl6,-2.281193550624999,3,"[Element Cl, Element K, Element Nd]",Cubic,Fm-3m,10,K3 Nd1 Cl6,6.0,1
mp-1110853,K3NdF6,-3.449900987924999,3,"[Element F, Element K, Element Nd]",Cubic,Fm-3m,10,K3 Nd1 F6,6.0,1
mp-1110956,K3NdI6,-1.598685918924999,3,"[Element I, Element K, Element Nd]",Cubic,Fm-3m,10,K3 Nd1 I6,6.0,1
mp-1111140,K3NiF6,-2.572764307175,3,"[Element F, Element K, Element Ni]",Cubic,Fm-3m,10,K3 Ni1 F6,6.0,1
mp-1111081,K3PdF6,-2.445116740175,3,"[Element F, Element K, Element Pd]",Cubic,Fm-3m,10,K3 Pd1 F6,6.0,1
mp-1110925,K3PrBr6,-2.062029076341667,3,"[Element Br, Element K, Element Pr]",Cubic,Fm-3m,10,K3 Pr1 Br6,6.0,1
mp-1110881,K3PrCl6,-2.272290651291665,3,"[Element Cl, Element K, Element Pr]",Cubic,Fm-3m,10,K3 Pr1 Cl6,6.0,1
mp-1110852,K3PrF6,-3.432067384341666,3,"[Element F, Element K, Element Pr]",Cubic,Fm-3m,10,K3 Pr1 F6,6.0,1
mp-1110955,K3PrI6,-1.5961602483416661,3,"[Element I, Element K, Element Pr]",Cubic,Fm-3m,10,K3 Pr1 I6,6.0,1
mp-1111856,K3RhF6,-2.597276491174997,3,"[Element F, Element K, Element Rh]",Cubic,Fm-3m,10,K3 Rh1 F6,6.0,1
mp-1111078,K3RuF6,-2.5809826231749993,3,"[Element F, Element K, Element Ru]",Cubic,Fm-3m,10,K3 Ru1 F6,6.0,1
mp-1110924,K3SbBr6,-1.5592419551749992,3,"[Element Br, Element K, Element Sb]",Cubic,Fm-3m,10,K3 Sb1 Br6,6.0,1
mp-1110880,K3SbCl6,-1.639418502624997,3,"[Element Cl, Element K, Element Sb]",Cubic,Fm-3m,10,K3 Sb1 Cl6,6.0,1
mp-1110845,K3SbF6,-2.828718994174999,3,"[Element F, Element K, Element Sb]",Cubic,Fm-3m,10,K3 Sb1 F6,6.0,1
mp-1110954,K3SbI6,-1.1582172141749991,3,"[Element I, Element K, Element Sb]",Cubic,Fm-3m,10,K3 Sb1 I6,6.0,1
mp-1110923,K3ScBr6,-2.021211225675001,3,"[Element Br, Element K, Element Sc]",Cubic,Fm-3m,10,K3 Sc1 Br6,6.0,1