material_id,pretty_formula,formation_energy_per_atom,num_elements,elements,crystal_system,space_group_symbol,nsites,composition,num_halogens,num_unique_halogen_types
mp-1111337,Na2AlAgF6,-2.8812404791249993,4,"[Element Ag, Element Al, Element F, Element Na]",Cubic,Fm-3m,10,Na2 Al1 Ag1 F6,6.0,1
mp-1111088,Na2AlAuF6,-2.675296087166669,4,"[Element Al, Element Au, Element F, Element Na]",Cubic,Fm-3m,10,Na2 Al1 Au1 F6,6.0,1
mp-1111082,Na2AlCuF6,-2.902017959604157,4,"[Element Al, Element Cu, Element F, Element Na]",Cubic,Fm-3m,10,Na2 Al1 Cu1 F6,6.0,1
mp-1111743,Na2AlHgBr6,-1.250770430525862,4,"[Element Al, Element Br, Element Hg, Element Na]",Cubic,Fm-3m,10,Na2 Al1 Hg1 Br6,6.0,1
mp-1111667,Na2AlHgCl6,-1.379015431250005,4,"[Element Al, Element Cl, Element Hg, Element Na]",Cubic,Fm-3m,10,Na2 Al1 Hg1 Cl6,6.0,1
mp-1111253,Na2AlHgF6,-2.776269223874999,4,"[Element Al, Element F, Element Hg, Element Na]",Cubic,Fm-3m,10,Na2 Al1 Hg1 F6,6.0,1
mp-1111090,Na2AlInF6,-2.968158859458332,4,"[Element Al, Element F, Element In, Element Na]",Cubic,Fm-3m,10,Na2 Al1 In1 F6,6.0,1
mp-1110621,Na2AlTlF6,-2.977590612499995,4,"[Element Al, Element F, Element Na, Element Tl]",Cubic,Fm-3m,10,Na2 Al1 Tl1 F6,6.0,1
mp-1111089,Na2AsAuF6,-1.9541965959999992,4,"[Element As, Element Au, Element F, Element Na]",Cubic,Fm-3m,10,Na2 As1 Au1 F6,6.0,1
mp-1111509,Na2CeCuCl6,-1.760409293999998,4,"[Element Ce, Element Cl, Element Cu, Element Na]",Cubic,Fm-3m,10,Na2 Ce1 Cu1 Cl6,6.0,1
mp-1111334,Na2CoAgF6,-2.185827259442528,4,"[Element Ag, Element Co, Element F, Element Na]",Cubic,Fm-3m,10,Na2 Co1 Ag1 F6,6.0,1
mp-1111141,Na2CoAuF6,-2.018158489275862,4,"[Element Au, Element Co, Element F, Element Na]",Cubic,Fm-3m,10,Na2 Co1 Au1 F6,6.0,1
mp-1111189,Na2CoHgF6,-2.119184760525863,4,"[Element Co, Element F, Element Hg, Element Na]",Cubic,Fm-3m,10,Na2 Co1 Hg1 F6,6.0,1
mp-1111094,Na2CrAgF6,-2.556679519442528,4,"[Element Ag, Element Cr, Element F, Element Na]",Cubic,Fm-3m,10,Na2 Cr1 Ag1 F6,6.0,1
mp-1111086,Na2CrAuF6,-2.361215615275862,4,"[Element Au, Element Cr, Element F, Element Na]",Cubic,Fm-3m,10,Na2 Cr1 Au1 F6,6.0,1
mp-1111186,Na2CrHgF6,-2.460015896525862,4,"[Element Cr, Element F, Element Hg, Element Na]",Cubic,Fm-3m,10,Na2 Cr1 Hg1 F6,6.0,1
mp-1111289,Na2CuAsF6,-2.155844369875,4,"[Element As, Element Cu, Element F, Element Na]",Cubic,Fm-3m,10,Na2 Cu1 As1 F6,6.0,1
mp-1111511,Na2CuAuCl6,-1.193242452275862,4,"[Element Au, Element Cl, Element Cu, Element Na]",Cubic,Fm-3m,10,Na2 Cu1 Au1 Cl6,6.0,1
mp-1111283,Na2CuAuF6,-1.971181321275861,4,"[Element Au, Element Cu, Element F, Element Na]",Cubic,Fm-3m,10,Na2 Cu1 Au1 F6,6.0,1
mp-1111135,Na2CuBiBr6,-1.142300283275862,4,"[Element Bi, Element Br, Element Cu, Element Na]",Cubic,Fm-3m,10,Na2 Cu1 Bi1 Br6,6.0,1
mp-1111510,Na2CuBiCl6,-1.222679208666666,4,"[Element Bi, Element Cl, Element Cu, Element Na]",Cubic,Fm-3m,10,Na2 Cu1 Bi1 Cl6,6.0,1
mp-1111279,Na2CuBiF6,-2.269895509750001,4,"[Element Bi, Element Cu, Element F, Element Na]",Cubic,Fm-3m,10,Na2 Cu1 Bi1 F6,6.0,1
mp-1111066,Na2CuMoF6,-2.3870390468750022,4,"[Element Cu, Element F, Element Mo, Element Na]",Cubic,Fm-3m,10,Na2 Cu1 Mo1 F6,6.0,1
mp-1111274,Na2CuPdF6,-2.076635056180551,4,"[Element Cu, Element F, Element Na, Element Pd]",Cubic,Fm-3m,10,Na2 Cu1 Pd1 F6,6.0,1
mp-1111536,Na2CuSbCl6,-1.152637600250001,4,"[Element Cl, Element Cu, Element Na, Element Sb]",Cubic,Fm-3m,10,Na2 Cu1 Sb1 Cl6,6.0,1
mp-1111272,Na2CuSbF6,-2.299891334275862,4,"[Element Cu, Element F, Element Na, Element Sb]",Cubic,Fm-3m,10,Na2 Cu1 Sb1 F6,6.0,1
mp-1111132,Na2DyCuCl6,-1.7790154235000002,4,"[Element Cl, Element Cu, Element Dy, Element Na]",Cubic,Fm-3m,10,Na2 Dy1 Cu1 Cl6,6.0,1
mp-1111508,Na2ErCuCl6,-1.776939179083334,4,"[Element Cl, Element Cu, Element Er, Element Na]",Cubic,Fm-3m,10,Na2 Er1 Cu1 Cl6,6.0,1
mp-1111507,Na2EuCuCl6,-1.8193175667758612,4,"[Element Cl, Element Cu, Element Eu, Element Na]",Cubic,Fm-3m,10,Na2 Eu1 Cu1 Cl6,6.0,1
mp-1111331,Na2FeAgF6,-2.389226476442528,4,"[Element Ag, Element F, Element Fe, Element Na]",Cubic,Fm-3m,10,Na2 Fe1 Ag1 F6,6.0,1
mp-1111180,Na2FeHgF6,-2.306277580525862,4,"[Element F, Element Fe, Element Hg, Element Na]",Cubic,Fm-3m,10,Na2 Fe1 Hg1 F6,6.0,1
mp-1111537,Na2GaAgBr6,-1.173909956192528,4,"[Element Ag, Element Br, Element Ga, Element Na]",Cubic,Fm-3m,10,Na2 Ga1 Ag1 Br6,6.0,1
mp-1111121,Na2GaAgCl6,-1.473927971192528,4,"[Element Ag, Element Cl, Element Ga, Element Na]",Cubic,Fm-3m,10,Na2 Ga1 Ag1 Cl6,6.0,1
mp-1111329,Na2GaAgF6,-2.5217648191925273,4,"[Element Ag, Element F, Element Ga, Element Na]",Cubic,Fm-3m,10,Na2 Ga1 Ag1 F6,6.0,1
mp-1111188,Na2GaAgI6,-0.7563067011925281,4,"[Element Ag, Element Ga, Element I, Element Na]",Cubic,Fm-3m,10,Na2 Ga1 Ag1 I6,6.0,1
mp-1111305,Na2GaAuF6,-2.325130192025862,4,"[Element Au, Element F, Element Ga, Element Na]",Cubic,Fm-3m,10,Na2 Ga1 Au1 F6,6.0,1
mp-1111277,Na2GaCuF6,-2.530371012025862,4,"[Element Cu, Element F, Element Ga, Element Na]",Cubic,Fm-3m,10,Na2 Ga1 Cu1 F6,6.0,1
mp-1111064,Na2GaHgBr6,-1.147934416275862,4,"[Element Br, Element Ga, Element Hg, Element Na]",Cubic,Fm-3m,10,Na2 Ga1 Hg1 Br6,6.0,1
mp-1111661,Na2GaHgCl6,-1.410606430275863,4,"[Element Cl, Element Ga, Element Hg, Element Na]",Cubic,Fm-3m,10,Na2 Ga1 Hg1 Cl6,6.0,1
mp-1111169,Na2GaHgF6,-2.434844721275862,4,"[Element F, Element Ga, Element Hg, Element Na]",Cubic,Fm-3m,10,Na2 Ga1 Hg1 F6,6.0,1
mp-1111742,Na2HgAsBr6,-1.023430627275862,4,"[Element As, Element Br, Element Hg, Element Na]",Cubic,Fm-3m,10,Na2 Hg1 As1 Br6,6.0,1
mp-1111068,Na2HgAsCl6,-1.009124537249998,4,"[Element As, Element Cl, Element Hg, Element Na]",Cubic,Fm-3m,10,Na2 Hg1 As1 Cl6,6.0,1
mp-1111208,Na2HgAsF6,-2.0645671925,4,"[Element As, Element F, Element Hg, Element Na]",Cubic,Fm-3m,10,Na2 Hg1 As1 F6,6.0,1
mp-1111804,Na2HgAsI6,-0.6928415362758631,4,"[Element As, Element Hg, Element I, Element Na]",Cubic,Fm-3m,10,Na2 Hg1 As1 I6,6.0,1
mp-1111190,Na2HgAuF6,-1.7460563790833392,4,"[Element Au, Element F, Element Hg, Element Na]",Cubic,Fm-3m,10,Na2 Hg1 Au1 F6,6.0,1
mp-1111063,Na2HgMoF6,-2.238174925625,4,"[Element F, Element Hg, Element Mo, Element Na]",Cubic,Fm-3m,10,Na2 Hg1 Mo1 F6,6.0,1
mp-1111157,Na2HgPdF6,-1.951963834525862,4,"[Element F, Element Hg, Element Na, Element Pd]",Cubic,Fm-3m,10,Na2 Hg1 Pd1 F6,6.0,1
mp-1111156,Na2HgRhF6,-2.013202965249994,4,"[Element F, Element Hg, Element Na, Element Rh]",Cubic,Fm-3m,10,Na2 Hg1 Rh1 F6,6.0,1
mp-1111411,Na2HgSbF6,-2.240170674525862,4,"[Element F, Element Hg, Element Na, Element Sb]",Cubic,Fm-3m,10,Na2 Hg1 Sb1 F6,6.0,1
mp-1111184,Na2InAgBr6,-1.201057848109195,4,"[Element Ag, Element Br, Element In, Element Na]",Cubic,Fm-3m,10,Na2 In1 Ag1 Br6,6.0,1
mp-1111534,Na2InAgCl6,-1.312393254333331,4,"[Element Ag, Element Cl, Element In, Element Na]",Cubic,Fm-3m,10,Na2 In1 Ag1 Cl6,6.0,1
mp-1111326,Na2InAgF6,-2.38118393333333,4,"[Element Ag, Element F, Element In, Element Na]",Cubic,Fm-3m,10,Na2 In1 Ag1 F6,6.0,1
mp-1111075,Na2InAsF6,-2.265938955416666,4,"[Element As, Element F, Element In, Element Na]",Cubic,Fm-3m,10,Na2 In1 As1 F6,6.0,1
mp-1111503,Na2InCuBr6,-1.178132886942528,4,"[Element Br, Element Cu, Element In, Element Na]",Cubic,Fm-3m,10,Na2 In1 Cu1 Br6,6.0,1
mp-1111118,Na2InCuCl6,-1.296175764833327,4,"[Element Cl, Element Cu, Element In, Element Na]",Cubic,Fm-3m,10,Na2 In1 Cu1 Cl6,6.0,1
mp-1111083,Na2InCuF6,-2.413345171430557,4,"[Element Cu, Element F, Element In, Element Na]",Cubic,Fm-3m,10,Na2 In1 Cu1 F6,6.0,1
mp-1111022,Na2InGaF6,-2.526253784692528,4,"[Element F, Element Ga, Element In, Element Na]",Cubic,Fm-3m,10,Na2 In1 Ga1 F6,6.0,1
mp-1111740,Na2InHgBr6,-1.167029937192529,4,"[Element Br, Element Hg, Element In, Element Na]",Cubic,Fm-3m,10,Na2 In1 Hg1 Br6,6.0,1
mp-1111168,Na2InHgF6,-2.305226996083327,4,"[Element F, Element Hg, Element In, Element Na]",Cubic,Fm-3m,10,Na2 In1 Hg1 F6,6.0,1
mp-1111304,Na2IrAuF6,-1.82079917266667,4,"[Element Au, Element F, Element Ir, Element Na]",Cubic,Fm-3m,10,Na2 Ir1 Au1 F6,6.0,1
mp-1110995,Na2LaCuCl6,-1.791900309499999,4,"[Element Cl, Element Cu, Element La, Element Na]",Cubic,Fm-3m,10,Na2 La1 Cu1 Cl6,6.0,1
mp-1111056,Na2LiAlF6,-3.4068037605,4,"[Element Al, Element F, Element Li, Element Na]",Cubic,Fm-3m,10,Na2 Li1 Al1 F6,6.0,1
mp-1110998,Na2LiAsF6,-2.619168398416666,4,"[Element As, Element F, Element Li, Element Na]",Cubic,Fm-3m,10,Na2 Li1 As1 F6,6.0,1
mp-1113945,Na2LiAuCl6,-1.351259954609195,4,"[Element Au, Element Cl, Element Li, Element Na]",Cubic,Fm-3m,10,Na2 Li1 Au1 Cl6,6.0,1
mp-1110991,Na2LiAuF6,-2.223027951609195,4,"[Element Au, Element F, Element Li, Element Na]",Cubic,Fm-3m,10,Na2 Li1 Au1 F6,6.0,1
mp-1111739,Na2LiBiBr6,-1.406309012609195,4,"[Element Bi, Element Br, Element Li, Element Na]",Cubic,Fm-3m,10,Na2 Li1 Bi1 Br6,6.0,1
mp-1111659,Na2LiBiCl6,-1.528863747083333,4,"[Element Bi, Element Cl, Element Li, Element Na]",Cubic,Fm-3m,10,Na2 Li1 Bi1 Cl6,6.0,1
mp-1110905,Na2LiBiF6,-2.71512521066667,4,"[Element Bi, Element F, Element Li, Element Na]",Cubic,Fm-3m,10,Na2 Li1 Bi1 F6,6.0,1
mp-1111803,Na2LiBiI6,-0.979076233609195,4,"[Element Bi, Element I, Element Li, Element Na]",Cubic,Fm-3m,10,Na2 Li1 Bi1 I6,6.0,1
mp-1113920,Na2LiCeCl6,-2.091345688416666,4,"[Element Ce, Element Cl, Element Li, Element Na]",Cubic,Fm-3m,10,Na2 Li1 Ce1 Cl6,6.0,1
mp-1114241,Na2LiCrF6,-3.046895989609195,4,"[Element Cr, Element F, Element Li, Element Na]",Cubic,Fm-3m,10,Na2 Li1 Cr1 F6,6.0,1
mp-1113839,Na2LiDyCl6,-2.118701853916666,4,"[Element Cl, Element Dy, Element Li, Element Na]",Cubic,Fm-3m,10,Na2 Li1 Dy1 Cl6,6.0,1
mp-1113921,Na2LiErCl6,-2.117608908500001,4,"[Element Cl, Element Er, Element Li, Element Na]",Cubic,Fm-3m,10,Na2 Li1 Er1 Cl6,6.0,1
mp-1113918,Na2LiEuCl6,-2.047822178109195,4,"[Element Cl, Element Eu, Element Li, Element Na]",Cubic,Fm-3m,10,Na2 Li1 Eu1 Cl6,6.0,1
mp-1114242,Na2LiGaF6,-3.015398045359195,4,"[Element F, Element Ga, Element Li, Element Na]",Cubic,Fm-3m,10,Na2 Li1 Ga1 F6,6.0,1
mp-1113919,Na2LiGdCl6,-2.095180996416668,4,"[Element Cl, Element Gd, Element Li, Element Na]",Cubic,Fm-3m,10,Na2 Li1 Gd1 Cl6,6.0,1
mp-1111477,Na2LiInCl6,-1.7703537842758612,4,"[Element Cl, Element In, Element Li, Element Na]",Cubic,Fm-3m,10,Na2 Li1 In1 Cl6,6.0,1
mp-1110904,Na2LiInF6,-2.8928523722758612,4,"[Element F, Element In, Element Li, Element Na]",Cubic,Fm-3m,10,Na2 Li1 In1 F6,6.0,1
mp-1114239,Na2LiIrF6,-2.456846318566668,4,"[Element F, Element Ir, Element Li, Element Na]",Cubic,Fm-3m,10,Na2 Li1 Ir1 F6,6.0,1
mp-1113840,Na2LiLaCl6,-2.125028335916666,4,"[Element Cl, Element La, Element Li, Element Na]",Cubic,Fm-3m,10,Na2 Li1 La1 Cl6,6.0,1
mp-1113316,Na2LiLuCl6,-2.122649153083337,4,"[Element Cl, Element Li, Element Lu, Element Na]",Cubic,Fm-3m,10,Na2 Li1 Lu1 Cl6,6.0,1
mp-1114240,Na2LiMnF6,-2.872809395402298,4,"[Element F, Element Li, Element Mn, Element Na]",Cubic,Fm-3m,10,Na2 Li1 Mn1 F6,6.0,1
mp-989504,Na2LiNF6,-1.8110903991091951,4,"[Element F, Element Li, Element N, Element Na]",Cubic,Fm-3m,10,Na2 Li1 N1 F6,6.0,1
mp-1110637,Na2LiNbF6,-2.862566670041668,4,"[Element F, Element Li, Element Na, Element Nb]",Cubic,Fm-3m,10,Na2 Li1 Nb1 F6,6.0,1
mp-1113739,Na2LiNdCl6,-2.096593988666667,4,"[Element Cl, Element Li, Element Na, Element Nd]",Cubic,Fm-3m,10,Na2 Li1 Nd1 Cl6,6.0,1
mp-1114109,Na2LiNiF6,-2.586728331000009,4,"[Element F, Element Li, Element Na, Element Ni]",Cubic,Fm-3m,10,Na2 Li1 Ni1 F6,6.0,1
mp-1114237,Na2LiPdF6,-2.353466008083337,4,"[Element F, Element Li, Element Na, Element Pd]",Cubic,Fm-3m,10,Na2 Li1 Pd1 F6,6.0,1
mp-1113740,Na2LiPrCl6,-2.087457080583333,4,"[Element Cl, Element Li, Element Na, Element Pr]",Cubic,Fm-3m,10,Na2 Li1 Pr1 Cl6,6.0,1
mp-1114234,Na2LiRhF6,-2.551669323609194,4,"[Element F, Element Li, Element Na, Element Rh]",Cubic,Fm-3m,10,Na2 Li1 Rh1 F6,6.0,1
mp-1110634,Na2LiRuF6,-2.560326733958335,4,"[Element F, Element Li, Element Na, Element Ru]",Cubic,Fm-3m,10,Na2 Li1 Ru1 F6,6.0,1
mp-1111476,Na2LiSbCl6,-1.452950612666666,4,"[Element Cl, Element Li, Element Na, Element Sb]",Cubic,Fm-3m,10,Na2 Li1 Sb1 Cl6,6.0,1
mp-1110657,Na2LiSbF6,-2.752620847609194,4,"[Element F, Element Li, Element Na, Element Sb]",Cubic,Fm-3m,10,Na2 Li1 Sb1 F6,6.0,1
mp-1111475,Na2LiScCl6,-2.05722915541667,4,"[Element Cl, Element Li, Element Na, Element Sc]",Cubic,Fm-3m,10,Na2 Li1 Sc1 Cl6,6.0,1
mp-1113900,Na2LiScF6,-3.482679924109195,4,"[Element F, Element Li, Element Na, Element Sc]",Cubic,Fm-3m,10,Na2 Li1 Sc1 F6,6.0,1
mp-1113741,Na2LiSmCl6,-2.221644845109196,4,"[Element Cl, Element Li, Element Na, Element Sm]",Cubic,Fm-3m,10,Na2 Li1 Sm1 Cl6,6.0,1
mp-1113318,Na2LiTbCl6,-2.118356705416667,4,"[Element Cl, Element Li, Element Na, Element Tb]",Cubic,Fm-3m,10,Na2 Li1 Tb1 Cl6,6.0,1
mp-1113901,Na2LiTiF6,-3.231862227942528,4,"[Element F, Element Li, Element Na, Element Ti]",Cubic,Fm-3m,10,Na2 Li1 Ti1 F6,6.0,1
mp-1111738,Na2LiTlBr6,-1.293645462942529,4,"[Element Br, Element Li, Element Na, Element Tl]",Cubic,Fm-3m,10,Na2 Li1 Tl1 Br6,6.0,1
mp-1111474,Na2LiTlCl6,-1.580069067942528,4,"[Element Cl, Element Li, Element Na, Element Tl]",Cubic,Fm-3m,10,Na2 Li1 Tl1 Cl6,6.0,1
mp-1110629,Na2LiTlF6,-2.554093055916669,4,"[Element F, Element Li, Element Na, Element Tl]",Cubic,Fm-3m,10,Na2 Li1 Tl1 F6,6.0,1
mp-1113284,Na2LiTmCl6,-2.123752818416668,4,"[Element Cl, Element Li, Element Na, Element Tm]",Cubic,Fm-3m,10,Na2 Li1 Tm1 Cl6,6.0,1
mp-1114229,Na2LiVF6,-3.015468999609195,4,"[Element F, Element Li, Element Na, Element V]",Cubic,Fm-3m,10,Na2 Li1 V1 F6,6.0,1
mp-1111737,Na2LiYBr6,-1.879860537609195,4,"[Element Br, Element Li, Element Na, Element Y]",Cubic,Fm-3m,10,Na2 Li1 Y1 Br6,6.0,1
mp-1111473,Na2LiYCl6,-2.110053904166673,4,"[Element Cl, Element Li, Element Na, Element Y]",Cubic,Fm-3m,10,Na2 Li1 Y1 Cl6,6.0,1
mp-1110628,Na2LiYF6,-3.476040767166667,4,"[Element F, Element Li, Element Na, Element Y]",Cubic,Fm-3m,10,Na2 Li1 Y1 F6,6.0,1
mp-1111531,Na2LuAgCl6,-1.807236088166671,4,"[Element Ag, Element Cl, Element Lu, Element Na]",Cubic,Fm-3m,10,Na2 Lu1 Ag1 Cl6,6.0,1
mp-1110994,Na2LuCuCl6,-1.781204823666668,4,"[Element Cl, Element Cu, Element Lu, Element Na]",Cubic,Fm-3m,10,Na2 Lu1 Cu1 Cl6,6.0,1
mp-1111324,Na2MnAgF6,-2.432016140235632,4,"[Element Ag, Element F, Element Mn, Element Na]",Cubic,Fm-3m,10,Na2 Mn1 Ag1 F6,6.0,1
mp-1111303,Na2MnAuF6,-2.265300433068965,4,"[Element Au, Element F, Element Mn, Element Na]",Cubic,Fm-3m,10,Na2 Mn1 Au1 F6,6.0,1
mp-1111165,Na2MnHgF6,-2.428299653318966,4,"[Element F, Element Hg, Element Mn, Element Na]",Cubic,Fm-3m,10,Na2 Mn1 Hg1 F6,6.0,1
mp-1110617,Na2MnTlF6,-2.516186545402299,4,"[Element F, Element Mn, Element Na, Element Tl]",Cubic,Fm-3m,10,Na2 Mn1 Tl1 F6,6.0,1
mp-1111302,Na2MoAuF6,-2.223017425874999,4,"[Element Au, Element F, Element Mo, Element Na]",Cubic,Fm-3m,10,Na2 Mo1 Au1 F6,6.0,1
mp-1111091,Na2NbAgF6,-2.365670392166666,4,"[Element Ag, Element F, Element Na, Element Nb]",Cubic,Fm-3m,10,Na2 Nb1 Ag1 F6,6.0,1
mp-1113374,Na2NdCuCl6,-1.760070670250002,4,"[Element Cl, Element Cu, Element Na, Element Nd]",Cubic,Fm-3m,10,Na2 Nd1 Cu1 Cl6,6.0,1
mp-1111162,Na2NiHgF6,-2.2108729589,4,"[Element F, Element Hg, Element Na, Element Ni]",Cubic,Fm-3m,10,Na2 Ni1 Hg1 F6,6.0,1
mp-1111301,Na2PdAuF6,-1.755471605333335,4,"[Element Au, Element F, Element Na, Element Pd]",Cubic,Fm-3m,10,Na2 Pd1 Au1 F6,6.0,1
mp-1113375,Na2PrCuCl6,-1.844187332166667,4,"[Element Cl, Element Cu, Element Na, Element Pr]",Cubic,Fm-3m,10,Na2 Pr1 Cu1 Cl6,6.0,1
mp-1111300,Na2RhAuF6,-1.894455808833338,4,"[Element Au, Element F, Element Na, Element Rh]",Cubic,Fm-3m,10,Na2 Rh1 Au1 F6,6.0,1
mp-1111087,Na2RuAuF6,-1.9315875195000012,4,"[Element Au, Element F, Element Na, Element Ru]",Cubic,Fm-3m,10,Na2 Ru1 Au1 F6,6.0,1
mp-1111412,Na2SbAuF6,-2.119919269275861,4,"[Element Au, Element F, Element Na, Element Sb]",Cubic,Fm-3m,10,Na2 Sb1 Au1 F6,6.0,1
mp-1111525,Na2ScAgCl6,-1.744232230500002,4,"[Element Ag, Element Cl, Element Na, Element Sc]",Cubic,Fm-3m,10,Na2 Sc1 Ag1 Cl6,6.0,1
mp-1111316,Na2ScAgF6,-2.957031199833333,4,"[Element Ag, Element F, Element Na, Element Sc]",Cubic,Fm-3m,10,Na2 Sc1 Ag1 F6,6.0,1
mp-1111084,Na2ScAuF6,-2.7569687074444493,4,"[Element Au, Element F, Element Na, Element Sc]",Cubic,Fm-3m,10,Na2 Sc1 Au1 F6,6.0,1
mp-1111532,Na2ScCuCl6,-1.723878963999999,4,"[Element Cl, Element Cu, Element Na, Element Sc]",Cubic,Fm-3m,10,Na2 Sc1 Cu1 Cl6,6.0,1
mp-1111065,Na2ScCuF6,-2.978915552250001,4,"[Element Cu, Element F, Element Na, Element Sc]",Cubic,Fm-3m,10,Na2 Sc1 Cu1 F6,6.0,1
mp-1111062,Na2ScHgF6,-2.855925310583337,4,"[Element F, Element Hg, Element Na, Element Sc]",Cubic,Fm-3m,10,Na2 Sc1 Hg1 F6,6.0,1
mp-1111488,Na2SmCuCl6,-1.898987165775862,4,"[Element Cl, Element Cu, Element Na, Element Sm]",Cubic,Fm-3m,10,Na2 Sm1 Cu1 Cl6,6.0,1
mp-1111551,Na2TaAgF6,-2.44288677695333,4,"[Element Ag, Element F, Element Na, Element Ta]",Cubic,Fm-3m,10,Na2 Ta1 Ag1 F6,6.0,1
mp-1111549,Na2TaAuF6,-2.464241126243328,4,"[Element Au, Element F, Element Na, Element Ta]",Cubic,Fm-3m,10,Na2 Ta1 Au1 F6,6.0,1
mp-1111478,Na2TaHgF6,-2.555270270786664,4,"[Element F, Element Hg, Element Na, Element Ta]",Cubic,Fm-3m,10,Na2 Ta1 Hg1 F6,6.0,1
mp-1111485,Na2TbCuCl6,-1.779138691000001,4,"[Element Cl, Element Cu, Element Na, Element Tb]",Cubic,Fm-3m,10,Na2 Tb1 Cu1 Cl6,6.0,1
mp-1111315,Na2TiAgF6,-2.747848715775861,4,"[Element Ag, Element F, Element Na, Element Ti]",Cubic,Fm-3m,10,Na2 Ti1 Ag1 F6,6.0,1
mp-1111293,Na2TiAuF6,-2.618074477609195,4,"[Element Au, Element F, Element Na, Element Ti]",Cubic,Fm-3m,10,Na2 Ti1 Au1 F6,6.0,1
mp-1111410,Na2TiHgF6,-2.8401182438591963,4,"[Element F, Element Hg, Element Na, Element Ti]",Cubic,Fm-3m,10,Na2 Ti1 Hg1 F6,6.0,1
mp-1111314,Na2TlAgF6,-2.073246263749998,4,"[Element Ag, Element F, Element Na, Element Tl]",Cubic,Fm-3m,10,Na2 Tl1 Ag1 F6,6.0,1
mp-1111404,Na2TlAsF6,-2.228802435250003,4,"[Element As, Element F, Element Na, Element Tl]",Cubic,Fm-3m,10,Na2 Tl1 As1 F6,6.0,1
mp-1110620,Na2TlCoF6,-2.300214458609196,4,"[Element Co, Element F, Element Na, Element Tl]",Cubic,Fm-3m,10,Na2 Tl1 Co1 F6,6.0,1
mp-1110619,Na2TlCrF6,-2.658808712609196,4,"[Element Cr, Element F, Element Na, Element Tl]",Cubic,Fm-3m,10,Na2 Tl1 Cr1 F6,6.0,1
mp-1110993,Na2TlCuBr6,-1.076208216609196,4,"[Element Br, Element Cu, Element Na, Element Tl]",Cubic,Fm-3m,10,Na2 Tl1 Cu1 Br6,6.0,1
mp-1110992,Na2TlCuCl6,-1.331106336609196,4,"[Element Cl, Element Cu, Element Na, Element Tl]",Cubic,Fm-3m,10,Na2 Tl1 Cu1 Cl6,6.0,1
mp-1111265,Na2TlCuF6,-2.190846248812511,4,"[Element Cu, Element F, Element Na, Element Tl]",Cubic,Fm-3m,10,Na2 Tl1 Cu1 F6,6.0,1
mp-1110618,Na2TlGaF6,-2.6236183693591952,4,"[Element F, Element Ga, Element Na, Element Tl]",Cubic,Fm-3m,10,Na2 Tl1 Ga1 F6,6.0,1
mp-1111023,Na2TlHgF6,-2.047861702312511,4,"[Element F, Element Hg, Element Na, Element Tl]",Cubic,Fm-3m,10,Na2 Tl1 Hg1 F6,6.0,1
mp-1110616,Na2TlNiF6,-2.266361824550009,4,"[Element F, Element Na, Element Ni, Element Tl]",Cubic,Fm-3m,10,Na2 Tl1 Ni1 F6,6.0,1
mp-1110615,Na2TlVF6,-2.622016502000025,4,"[Element F, Element Na, Element Tl, Element V]",Cubic,Fm-3m,10,Na2 Tl1 V1 F6,6.0,1
mp-1111523,Na2TmAgCl6,-1.8087830905,4,"[Element Ag, Element Cl, Element Na, Element Tm]",Cubic,Fm-3m,10,Na2 Tm1 Ag1 Cl6,6.0,1
mp-1111042,Na2TmCuCl6,-1.782572154,4,"[Element Cl, Element Cu, Element Na, Element Tm]",Cubic,Fm-3m,10,Na2 Tm1 Cu1 Cl6,6.0,1
mp-1111313,Na2VAgF6,-2.533360947999998,4,"[Element Ag, Element F, Element Na, Element V]",Cubic,Fm-3m,10,Na2 V1 Ag1 F6,6.0,1
mp-1111085,Na2VAuF6,-2.36089223875,4,"[Element Au, Element F, Element Na, Element V]",Cubic,Fm-3m,10,Na2 V1 Au1 F6,6.0,1
mp-1111409,Na2VHgF6,-2.425940995749997,4,"[Element F, Element Hg, Element Na, Element V]",Cubic,Fm-3m,10,Na2 V1 Hg1 F6,6.0,1
mp-1111092,Na2YAgF6,-2.977369576000001,4,"[Element Ag, Element F, Element Na, Element Y]",Cubic,Fm-3m,10,Na2 Y1 Ag1 F6,6.0,1
mp-1111744,Na2YCuBr6,-1.580670454275861,4,"[Element Br, Element Cu, Element Na, Element Y]",Cubic,Fm-3m,10,Na2 Y1 Cu1 Br6,6.0,1
mp-1111514,Na2YCuCl6,-1.771035509750007,4,"[Element Cl, Element Cu, Element Na, Element Y]",Cubic,Fm-3m,10,Na2 Y1 Cu1 Cl6,6.0,1
mp-1110996,Na2YCuF6,-2.9902990022500022,4,"[Element Cu, Element F, Element Na, Element Y]",Cubic,Fm-3m,10,Na2 Y1 Cu1 F6,6.0,1