material_id,pretty_formula,formation_energy_per_atom,num_elements,elements,crystal_system,space_group_symbol,nsites,composition,num_halogens,num_unique_halogen_types
mp-1114116,Rb2TlAsBr6,-1.374339472583334,4,"[Element As, Element Br, Element Rb, Element Tl]",Cubic,Fm-3m,10,Rb2 Tl1 As1 Br6,6.0,1
mp-1114009,Rb2TlAsCl6,-1.622903490583333,4,"[Element As, Element Cl, Element Rb, Element Tl]",Cubic,Fm-3m,10,Rb2 Tl1 As1 Cl6,6.0,1
mp-1113873,Rb2TlAsF6,-2.559564940583333,4,"[Element As, Element F, Element Rb, Element Tl]",Cubic,Fm-3m,10,Rb2 Tl1 As1 F6,6.0,1
mp-1114168,Rb2TlAsI6,-1.008219640583334,4,"[Element As, Element I, Element Rb, Element Tl]",Cubic,Fm-3m,10,Rb2 Tl1 As1 I6,6.0,1
mp-1111713,Rb2TlAuBr6,-1.2566751708333341,4,"[Element Au, Element Br, Element Rb, Element Tl]",Cubic,Fm-3m,10,Rb2 Tl1 Au1 Br6,6.0,1
mp-1111611,Rb2TlAuCl6,-1.460108712833335,4,"[Element Au, Element Cl, Element Rb, Element Tl]",Cubic,Fm-3m,10,Rb2 Tl1 Au1 Cl6,6.0,1
mp-1111400,Rb2TlAuF6,-2.175908921833334,4,"[Element Au, Element F, Element Rb, Element Tl]",Cubic,Fm-3m,10,Rb2 Tl1 Au1 F6,6.0,1
mp-1111787,Rb2TlAuI6,-0.940619578833334,4,"[Element Au, Element I, Element Rb, Element Tl]",Cubic,Fm-3m,10,Rb2 Tl1 Au1 I6,6.0,1
mp-1114114,Rb2TlBiBr6,-1.495697822833333,4,"[Element Bi, Element Br, Element Rb, Element Tl]",Cubic,Fm-3m,10,Rb2 Tl1 Bi1 Br6,6.0,1
mp-1113927,Rb2TlBiF6,-2.676157918833334,4,"[Element Bi, Element F, Element Rb, Element Tl]",Cubic,Fm-3m,10,Rb2 Tl1 Bi1 F6,6.0,1
mp-1113650,Rb2TlCoF6,-2.473937786833334,4,"[Element Co, Element F, Element Rb, Element Tl]",Cubic,Fm-3m,10,Rb2 Tl1 Co1 F6,6.0,1
mp-1113651,Rb2TlCrF6,-2.8727816048333343,4,"[Element Cr, Element F, Element Rb, Element Tl]",Cubic,Fm-3m,10,Rb2 Tl1 Cr1 F6,6.0,1
mp-1111484,Rb2TlCuBr6,-1.305266993833333,4,"[Element Br, Element Cu, Element Rb, Element Tl]",Cubic,Fm-3m,10,Rb2 Tl1 Cu1 Br6,6.0,1
mp-1111482,Rb2TlCuCl6,-1.5492221238333341,4,"[Element Cl, Element Cu, Element Rb, Element Tl]",Cubic,Fm-3m,10,Rb2 Tl1 Cu1 Cl6,6.0,1
mp-1113791,Rb2TlCuF6,-2.389293845833334,4,"[Element Cu, Element F, Element Rb, Element Tl]",Cubic,Fm-3m,10,Rb2 Tl1 Cu1 F6,6.0,1
mp-1113644,Rb2TlFeF6,-2.679314555833333,4,"[Element F, Element Fe, Element Rb, Element Tl]",Cubic,Fm-3m,10,Rb2 Tl1 Fe1 F6,6.0,1
mp-1114007,Rb2TlGaBr6,-1.492151208583334,4,"[Element Br, Element Ga, Element Rb, Element Tl]",Cubic,Fm-3m,10,Rb2 Tl1 Ga1 Br6,6.0,1
mp-1114004,Rb2TlGaCl6,-1.783494178583334,4,"[Element Cl, Element Ga, Element Rb, Element Tl]",Cubic,Fm-3m,10,Rb2 Tl1 Ga1 Cl6,6.0,1
mp-989565,Rb2TlGaF6,-2.835232728583334,4,"[Element F, Element Ga, Element Rb, Element Tl]",Cubic,Fm-3m,10,Rb2 Tl1 Ga1 F6,6.0,1
mp-1114169,Rb2TlGaI6,-1.074595677583334,4,"[Element Ga, Element I, Element Rb, Element Tl]",Cubic,Fm-3m,10,Rb2 Tl1 Ga1 I6,6.0,1
mp-1114086,Rb2TlHgBr6,-1.335001944083334,4,"[Element Br, Element Hg, Element Rb, Element Tl]",Cubic,Fm-3m,10,Rb2 Tl1 Hg1 Br6,6.0,1
mp-1114077,Rb2TlHgCl6,-1.553892032083335,4,"[Element Cl, Element Hg, Element Rb, Element Tl]",Cubic,Fm-3m,10,Rb2 Tl1 Hg1 Cl6,6.0,1
mp-1113908,Rb2TlHgF6,-2.327202730083335,4,"[Element F, Element Hg, Element Rb, Element Tl]",Cubic,Fm-3m,10,Rb2 Tl1 Hg1 F6,6.0,1
mp-1114194,Rb2TlHgI6,-0.9900418010833341,4,"[Element Hg, Element I, Element Rb, Element Tl]",Cubic,Fm-3m,10,Rb2 Tl1 Hg1 I6,6.0,1
mp-1114115,Rb2TlInBr6,-1.5276207525,4,"[Element Br, Element In, Element Rb, Element Tl]",Cubic,Fm-3m,10,Rb2 Tl1 In1 Br6,6.0,1
mp-989550,Rb2TlInCl6,-1.8027955545,4,"[Element Cl, Element In, Element Rb, Element Tl]",Cubic,Fm-3m,10,Rb2 Tl1 In1 Cl6,6.0,1
mp-989532,Rb2TlInF6,-2.7585047335,4,"[Element F, Element In, Element Rb, Element Tl]",Cubic,Fm-3m,10,Rb2 Tl1 In1 F6,6.0,1
mp-1114166,Rb2TlInI6,-1.1217037525,4,"[Element I, Element In, Element Rb, Element Tl]",Cubic,Fm-3m,10,Rb2 Tl1 In1 I6,6.0,1
mp-1113862,Rb2TlIrF6,-2.309065975833336,4,"[Element F, Element Ir, Element Rb, Element Tl]",Cubic,Fm-3m,10,Rb2 Tl1 Ir1 F6,6.0,1
mp-1113863,Rb2TlMoF6,-2.727277752833333,4,"[Element F, Element Mo, Element Rb, Element Tl]",Cubic,Fm-3m,10,Rb2 Tl1 Mo1 F6,6.0,1
mp-1113635,Rb2TlNiF6,-2.468352045833334,4,"[Element F, Element Ni, Element Rb, Element Tl]",Cubic,Fm-3m,10,Rb2 Tl1 Ni1 F6,6.0,1
mp-1113632,Rb2TlPdF6,-2.290726270833333,4,"[Element F, Element Pd, Element Rb, Element Tl]",Cubic,Fm-3m,10,Rb2 Tl1 Pd1 F6,6.0,1
mp-1113861,Rb2TlRhF6,-2.402731809833334,4,"[Element F, Element Rb, Element Rh, Element Tl]",Cubic,Fm-3m,10,Rb2 Tl1 Rh1 F6,6.0,1
mp-1113854,Rb2TlRuF6,-2.381742250833333,4,"[Element F, Element Rb, Element Ru, Element Tl]",Cubic,Fm-3m,10,Rb2 Tl1 Ru1 F6,6.0,1
mp-1114113,Rb2TlSbBr6,-1.4478168138333332,4,"[Element Br, Element Rb, Element Sb, Element Tl]",Cubic,Fm-3m,10,Rb2 Tl1 Sb1 Br6,6.0,1
mp-1114002,Rb2TlSbCl6,-1.699869768833334,4,"[Element Cl, Element Rb, Element Sb, Element Tl]",Cubic,Fm-3m,10,Rb2 Tl1 Sb1 Cl6,6.0,1
mp-1113924,Rb2TlSbF6,-2.644443887833334,4,"[Element F, Element Rb, Element Sb, Element Tl]",Cubic,Fm-3m,10,Rb2 Tl1 Sb1 F6,6.0,1
mp-1114167,Rb2TlSbI6,-1.072367770833334,4,"[Element I, Element Rb, Element Sb, Element Tl]",Cubic,Fm-3m,10,Rb2 Tl1 Sb1 I6,6.0,1
mp-1113849,Rb2TlVF6,-2.840599925833334,4,"[Element F, Element Rb, Element Tl, Element V]",Cubic,Fm-3m,10,Rb2 Tl1 V1 F6,6.0,1
mp-1111628,Rb2TmAgCl6,-2.182204191666667,4,"[Element Ag, Element Cl, Element Rb, Element Tm]",Cubic,Fm-3m,10,Rb2 Tm1 Ag1 Cl6,6.0,1
mp-1113450,Rb2TmAuCl6,-2.0427505335,4,"[Element Au, Element Cl, Element Rb, Element Tm]",Cubic,Fm-3m,10,Rb2 Tm1 Au1 Cl6,6.0,1
mp-1112412,Rb2TmCuCl6,-2.138892495500001,4,"[Element Cl, Element Cu, Element Rb, Element Tm]",Cubic,Fm-3m,10,Rb2 Tm1 Cu1 Cl6,6.0,1
mp-1110597,Rb2VAgF6,-2.7065121456666663,4,"[Element Ag, Element F, Element Rb, Element V]",Cubic,Fm-3m,10,Rb2 V1 Ag1 F6,6.0,1
mp-1110581,Rb2VAuF6,-2.5200214915,4,"[Element Au, Element F, Element Rb, Element V]",Cubic,Fm-3m,10,Rb2 V1 Au1 F6,6.0,1
mp-1113787,Rb2VCuF6,-2.6840008875,4,"[Element Cu, Element F, Element Rb, Element V]",Cubic,Fm-3m,10,Rb2 V1 Cu1 F6,6.0,1
mp-1113932,Rb2VHgF6,-2.670305425750001,4,"[Element F, Element Hg, Element Rb, Element V]",Cubic,Fm-3m,10,Rb2 V1 Hg1 F6,6.0,1
mp-1110801,Rb2YAgBr6,-1.8592620886666662,4,"[Element Ag, Element Br, Element Rb, Element Y]",Cubic,Fm-3m,10,Rb2 Y1 Ag1 Br6,6.0,1
mp-1110800,Rb2YAgCl6,-2.172295242666666,4,"[Element Ag, Element Cl, Element Rb, Element Y]",Cubic,Fm-3m,10,Rb2 Y1 Ag1 Cl6,6.0,1
mp-1110786,Rb2YAgF6,-3.186883124666669,4,"[Element Ag, Element F, Element Rb, Element Y]",Cubic,Fm-3m,10,Rb2 Y1 Ag1 F6,6.0,1
mp-1110816,Rb2YAgI6,-1.408657044666666,4,"[Element Ag, Element I, Element Rb, Element Y]",Cubic,Fm-3m,10,Rb2 Y1 Ag1 I6,6.0,1
mp-1111712,Rb2YAuBr6,-1.7390334255000002,4,"[Element Au, Element Br, Element Rb, Element Y]",Cubic,Fm-3m,10,Rb2 Y1 Au1 Br6,6.0,1
mp-1111711,Rb2YAuCl6,-2.0334613855,4,"[Element Au, Element Cl, Element Rb, Element Y]",Cubic,Fm-3m,10,Rb2 Y1 Au1 Cl6,6.0,1
mp-1111399,Rb2YAuF6,-3.001162570499999,4,"[Element Au, Element F, Element Rb, Element Y]",Cubic,Fm-3m,10,Rb2 Y1 Au1 F6,6.0,1
mp-1111786,Rb2YAuI6,-1.314804603499999,4,"[Element Au, Element I, Element Rb, Element Y]",Cubic,Fm-3m,10,Rb2 Y1 Au1 I6,6.0,1
mp-1112413,Rb2YCuBr6,-1.8092656325,4,"[Element Br, Element Cu, Element Rb, Element Y]",Cubic,Fm-3m,10,Rb2 Y1 Cu1 Br6,6.0,1
mp-1110685,Rb2YCuCl6,-2.1307066575,4,"[Element Cl, Element Cu, Element Rb, Element Y]",Cubic,Fm-3m,10,Rb2 Y1 Cu1 Cl6,6.0,1
mp-1110658,Rb2YCuF6,-3.144641709499999,4,"[Element Cu, Element F, Element Rb, Element Y]",Cubic,Fm-3m,10,Rb2 Y1 Cu1 F6,6.0,1
mp-1110761,Rb2YCuI6,-1.3486702405,4,"[Element Cu, Element I, Element Rb, Element Y]",Cubic,Fm-3m,10,Rb2 Y1 Cu1 I6,6.0,1
mp-1114137,Rb2YHgBr6,-1.777718098749999,4,"[Element Br, Element Hg, Element Rb, Element Y]",Cubic,Fm-3m,10,Rb2 Y1 Hg1 Br6,6.0,1
mp-1114078,Rb2YHgCl6,-2.07421931475,4,"[Element Cl, Element Hg, Element Rb, Element Y]",Cubic,Fm-3m,10,Rb2 Y1 Hg1 Cl6,6.0,1
mp-1113905,Rb2YHgF6,-3.10156680475,4,"[Element F, Element Hg, Element Rb, Element Y]",Cubic,Fm-3m,10,Rb2 Y1 Hg1 F6,6.0,1
mp-1114193,Rb2YHgI6,-1.34709645975,4,"[Element Hg, Element I, Element Rb, Element Y]",Cubic,Fm-3m,10,Rb2 Y1 Hg1 I6,6.0,1
mp-1114129,Rb2YInBr6,-1.903752233166666,4,"[Element Br, Element In, Element Rb, Element Y]",Cubic,Fm-3m,10,Rb2 Y1 In1 Br6,6.0,1
mp-1114045,Rb2YInCl6,-2.216510208166666,4,"[Element Cl, Element In, Element Rb, Element Y]",Cubic,Fm-3m,10,Rb2 Y1 In1 Cl6,6.0,1
mp-1113931,Rb2YInF6,-3.289476153166666,4,"[Element F, Element In, Element Rb, Element Y]",Cubic,Fm-3m,10,Rb2 Y1 In1 F6,6.0,1
mp-1114186,Rb2YInI6,-1.449890531166666,4,"[Element I, Element In, Element Rb, Element Y]",Cubic,Fm-3m,10,Rb2 Y1 In1 I6,6.0,1
mp-1114112,Rb2YTlBr6,-1.944472153833334,4,"[Element Br, Element Rb, Element Tl, Element Y]",Cubic,Fm-3m,10,Rb2 Y1 Tl1 Br6,6.0,1
mp-1114000,Rb2YTlCl6,-2.258796112833334,4,"[Element Cl, Element Rb, Element Tl, Element Y]",Cubic,Fm-3m,10,Rb2 Y1 Tl1 Cl6,6.0,1
mp-1113925,Rb2YTlF6,-3.320889706833333,4,"[Element F, Element Rb, Element Tl, Element Y]",Cubic,Fm-3m,10,Rb2 Y1 Tl1 F6,6.0,1
mp-1114164,Rb2YTlI6,-1.488978744833334,4,"[Element I, Element Rb, Element Tl, Element Y]",Cubic,Fm-3m,10,Rb2 Y1 Tl1 I6,6.0,1
mp-1110736,Rb3AlBr6,-1.7909824242499992,3,"[Element Al, Element Br, Element Rb]",Cubic,Fm-3m,10,Rb3 Al1 Br6,6.0,1
mp-1113999,Rb3AlCl6,-2.14374696825,3,"[Element Al, Element Cl, Element Rb]",Cubic,Fm-3m,10,Rb3 Al1 Cl6,6.0,1
mp-1113633,Rb3AlF6,-3.395627361249998,3,"[Element Al, Element F, Element Rb]",Cubic,Fm-3m,10,Rb3 Al1 F6,6.0,1
mp-1114162,Rb3AlI6,-1.30915006925,3,"[Element Al, Element I, Element Rb]",Cubic,Fm-3m,10,Rb3 Al1 I6,6.0,1
mp-1110735,Rb3AsBr6,-1.519302909999999,3,"[Element As, Element Br, Element Rb]",Cubic,Fm-3m,10,Rb3 As1 Br6,6.0,1
mp-1110695,Rb3AsCl6,-1.785246376,3,"[Element As, Element Cl, Element Rb]",Cubic,Fm-3m,10,Rb3 As1 Cl6,6.0,1
mp-1113850,Rb3AsF6,-2.750770718999998,3,"[Element As, Element F, Element Rb]",Cubic,Fm-3m,10,Rb3 As1 F6,6.0,1
mp-1114159,Rb3AsI6,-1.134053107,3,"[Element As, Element I, Element Rb]",Cubic,Fm-3m,10,Rb3 As1 I6,6.0,1
mp-1114110,Rb3AuBr6,-1.3238426192500001,3,"[Element Au, Element Br, Element Rb]",Cubic,Fm-3m,10,Rb3 Au1 Br6,6.0,1
mp-1114492,Rb3AuCl6,-1.546091129250002,3,"[Element Au, Element Cl, Element Rb]",Cubic,Fm-3m,10,Rb3 Au1 Cl6,6.0,1
mp-1113832,Rb3AuF6,-2.29259320525,3,"[Element Au, Element F, Element Rb]",Cubic,Fm-3m,10,Rb3 Au1 F6,6.0,1
mp-1114108,Rb3BiBr6,-1.65038870625,3,"[Element Bi, Element Br, Element Rb]",Cubic,Fm-3m,10,Rb3 Bi1 Br6,6.0,1
mp-1110734,Rb3BiCl6,-1.921167814249997,3,"[Element Bi, Element Cl, Element Rb]",Cubic,Fm-3m,10,Rb3 Bi1 Cl6,6.0,1
mp-1113922,Rb3BiF6,-2.868821066250001,3,"[Element Bi, Element F, Element Rb]",Cubic,Fm-3m,10,Rb3 Bi1 F6,6.0,1
mp-1110733,Rb3CeCl6,-2.40703029325,3,"[Element Ce, Element Cl, Element Rb]",Cubic,Fm-3m,10,Rb3 Ce1 Cl6,6.0,1
mp-1078913,Rb3CeF6,-3.447577348249999,3,"[Element Ce, Element F, Element Rb]",Cubic,Fm-3m,10,Rb3 Ce1 F6,6.0,1
mp-1113630,Rb3CoF6,-2.67234887424999,3,"[Element Co, Element F, Element Rb]",Cubic,Fm-3m,10,Rb3 Co1 F6,6.0,1
mp-1113631,Rb3CrF6,-3.073445499249997,3,"[Element Cr, Element F, Element Rb]",Cubic,Fm-3m,10,Rb3 Cr1 F6,6.0,1
mp-1110732,Rb3DyCl6,-2.4483570634166663,3,"[Element Cl, Element Dy, Element Rb]",Cubic,Fm-3m,10,Rb3 Dy1 Cl6,6.0,1
mp-1206146,Rb3DyF6,-3.534895507416666,3,"[Element Dy, Element F, Element Rb]",Cubic,Fm-3m,10,Rb3 Dy1 F6,6.0,1
mp-1110694,Rb3ErCl6,-2.452722212249999,3,"[Element Cl, Element Er, Element Rb]",Cubic,Fm-3m,10,Rb3 Er1 Cl6,6.0,1
mp-1206448,Rb3ErF6,-3.551303009249999,3,"[Element Er, Element F, Element Rb]",Cubic,Fm-3m,10,Rb3 Er1 F6,6.0,1
mp-1114107,Rb3EuCl6,-2.24888401675,3,"[Element Cl, Element Eu, Element Rb]",Cubic,Fm-3m,10,Rb3 Eu1 Cl6,6.0,1
mp-1205796,Rb3EuF6,-3.25554123175,3,"[Element Eu, Element F, Element Rb]",Cubic,Fm-3m,10,Rb3 Eu1 F6,6.0,1
mp-1113833,Rb3FeF6,-2.9028153082499992,3,"[Element F, Element Fe, Element Rb]",Cubic,Fm-3m,10,Rb3 Fe1 F6,6.0,1
mp-1110731,Rb3GaBr6,-1.6467867740000002,3,"[Element Br, Element Ga, Element Rb]",Cubic,Fm-3m,10,Rb3 Ga1 Br6,6.0,1
mp-1113996,Rb3GaCl6,-1.9573714350000002,3,"[Element Cl, Element Ga, Element Rb]",Cubic,Fm-3m,10,Rb3 Ga1 Cl6,6.0,1
mp-1113627,Rb3GaF6,-3.035707203999998,3,"[Element F, Element Ga, Element Rb]",Cubic,Fm-3m,10,Rb3 Ga1 F6,6.0,1
mp-1114160,Rb3GaI6,-1.206887245,3,"[Element Ga, Element I, Element Rb]",Cubic,Fm-3m,10,Rb3 Ga1 I6,6.0,1
mp-1114105,Rb3GdCl6,-2.4406922142500003,3,"[Element Cl, Element Gd, Element Rb]",Cubic,Fm-3m,10,Rb3 Gd1 Cl6,6.0,1
mp-1205532,Rb3GdF6,-3.48973538425,3,"[Element F, Element Gd, Element Rb]",Cubic,Fm-3m,10,Rb3 Gd1 F6,6.0,1
mp-1205794,Rb3HoCl6,-2.449667439749999,3,"[Element Cl, Element Ho, Element Rb]",Cubic,Fm-3m,10,Rb3 Ho1 Cl6,6.0,1
mp-1114106,Rb3InBr6,-1.685310899916666,3,"[Element Br, Element In, Element Rb]",Cubic,Fm-3m,10,Rb3 In1 Br6,6.0,1
mp-1110693,Rb3InCl6,-1.9781082609166671,3,"[Element Cl, Element In, Element Rb]",Cubic,Fm-3m,10,Rb3 In1 Cl6,6.0,1
mp-1113830,Rb3InF6,-2.954672109916665,3,"[Element F, Element In, Element Rb]",Cubic,Fm-3m,10,Rb3 In1 F6,6.0,1
mp-1114153,Rb3InI6,-1.258683346916666,3,"[Element I, Element In, Element Rb]",Cubic,Fm-3m,10,Rb3 In1 I6,6.0,1
mp-1113831,Rb3IrF6,-2.50563496325,3,"[Element F, Element Ir, Element Rb]",Cubic,Fm-3m,10,Rb3 Ir1 F6,6.0,1
mp-1206660,Rb3LaBr6,-2.14113905375,3,"[Element Br, Element La, Element Rb]",Cubic,Fm-3m,10,Rb3 La1 Br6,6.0,1
mp-1114627,Rb3LaCl6,-2.45459618775,3,"[Element Cl, Element La, Element Rb]",Cubic,Fm-3m,10,Rb3 La1 Cl6,6.0,1
mp-1113997,Rb3LuCl6,-2.454214791916667,3,"[Element Cl, Element Lu, Element Rb]",Cubic,Fm-3m,10,Rb3 Lu1 Cl6,6.0,1
mp-1206967,Rb3LuF6,-3.576023184916667,3,"[Element F, Element Lu, Element Rb]",Cubic,Fm-3m,10,Rb3 Lu1 F6,6.0,1
mp-1113828,Rb3MnF6,-2.896340527043103,3,"[Element F, Element Mn, Element Rb]",Cubic,Fm-3m,10,Rb3 Mn1 F6,6.0,1
mp-1113829,Rb3MoF6,-2.927005886249998,3,"[Element F, Element Mo, Element Rb]",Cubic,Fm-3m,10,Rb3 Mo1 F6,6.0,1
mp-1113826,Rb3NbF6,-2.9547425572500003,3,"[Element F, Element Nb, Element Rb]",Cubic,Fm-3m,10,Rb3 Nb1 F6,6.0,1
mp-1110730,Rb3NdCl6,-2.422244261,3,"[Element Cl, Element Nd, Element Rb]",Cubic,Fm-3m,10,Rb3 Nd1 Cl6,6.0,1
mp-1206106,Rb3NdF6,-3.461755927,3,"[Element F, Element Nd, Element Rb]",Cubic,Fm-3m,10,Rb3 Nd1 F6,6.0,1
mp-1113628,Rb3NiF6,-2.56609698425,3,"[Element F, Element Ni, Element Rb]",Cubic,Fm-3m,10,Rb3 Ni1 F6,6.0,1
mp-1113827,Rb3PdF6,-2.446851288249999,3,"[Element F, Element Pd, Element Rb]",Cubic,Fm-3m,10,Rb3 Pd1 F6,6.0,1
mp-1114630,Rb3PrCl6,-2.4148858664166672,3,"[Element Cl, Element Pr, Element Rb]",Cubic,Fm-3m,10,Rb3 Pr1 Cl6,6.0,1
mp-1205725,Rb3PrF6,-3.444810941416666,3,"[Element F, Element Pr, Element Rb]",Cubic,Fm-3m,10,Rb3 Pr1 F6,6.0,1
mp-1113824,Rb3RhF6,-2.5948713592499972,3,"[Element F, Element Rb, Element Rh]",Cubic,Fm-3m,10,Rb3 Rh1 F6,6.0,1
mp-1113825,Rb3RuF6,-2.578471849249998,3,"[Element F, Element Rb, Element Ru]",Cubic,Fm-3m,10,Rb3 Ru1 F6,6.0,1
mp-1110729,Rb3SbBr6,-1.597547903249999,3,"[Element Br, Element Rb, Element Sb]",Cubic,Fm-3m,10,Rb3 Sb1 Br6,6.0,1
mp-1110728,Rb3SbCl6,-1.866391993249999,3,"[Element Cl, Element Rb, Element Sb]",Cubic,Fm-3m,10,Rb3 Sb1 Cl6,6.0,1
mp-1113923,Rb3SbF6,-2.835641546249999,3,"[Element F, Element Rb, Element Sb]",Cubic,Fm-3m,10,Rb3 Sb1 F6,6.0,1
mp-1110766,Rb3SbI6,-1.20327103325,3,"[Element I, Element Rb, Element Sb]",Cubic,Fm-3m,10,Rb3 Sb1 I6,6.0,1
mp-1110727,Rb3ScBr6,-2.05498347875,3,"[Element Br, Element Rb, Element Sc]",Cubic,Fm-3m,10,Rb3 Sc1 Br6,6.0,1
mp-1110692,Rb3ScCl6,-2.390593515749992,3,"[Element Cl, Element Rb, Element Sc]",Cubic,Fm-3m,10,Rb3 Sc1 Cl6,6.0,1
mp-1113822,Rb3ScF6,-3.520107446749999,3,"[Element F, Element Rb, Element Sc]",Cubic,Fm-3m,10,Rb3 Sc1 F6,6.0,1
mp-1114154,Rb3ScI6,-1.5780944137500001,3,"[Element I, Element Rb, Element Sc]",Cubic,Fm-3m,10,Rb3 Sc1 I6,6.0,1
mp-1110726,Rb3SmCl6,-2.432512823749999,3,"[Element Cl, Element Rb, Element Sm]",Cubic,Fm-3m,10,Rb3 Sm1 Cl6,6.0,1
mp-1205612,Rb3SmF6,-3.48842949875,3,"[Element F, Element Rb, Element Sm]",Cubic,Fm-3m,10,Rb3 Sm1 F6,6.0,1
mp-1113823,Rb3TaF6,-2.8966706069833332,3,"[Element F, Element Rb, Element Ta]",Cubic,Fm-3m,10,Rb3 Ta1 F6,6.0,1
mp-1110725,Rb3TbCl6,-2.446857708916666,3,"[Element Cl, Element Rb, Element Tb]",Cubic,Fm-3m,10,Rb3 Tb1 Cl6,6.0,1
mp-1113820,Rb3TiF6,-3.262406702583329,3,"[Element F, Element Rb, Element Ti]",Cubic,Fm-3m,10,Rb3 Ti1 F6,6.0,1
mp-1114103,Rb3TlBr6,-1.535106744583334,3,"[Element Br, Element Rb, Element Tl]",Cubic,Fm-3m,10,Rb3 Tl1 Br6,6.0,1
mp-1113993,Rb3TlCl6,-1.794059019583334,3,"[Element Cl, Element Rb, Element Tl]",Cubic,Fm-3m,10,Rb3 Tl1 Cl6,6.0,1
mp-1113916,Rb3TlF6,-2.664944161583335,3,"[Element F, Element Rb, Element Tl]",Cubic,Fm-3m,10,Rb3 Tl1 F6,6.0,1
mp-1114151,Rb3TlI6,-1.144932554583334,3,"[Element I, Element Rb, Element Tl]",Cubic,Fm-3m,10,Rb3 Tl1 I6,6.0,1
mp-1110691,Rb3TmCl6,-2.45387886025,3,"[Element Cl, Element Rb, Element Tm]",Cubic,Fm-3m,10,Rb3 Tm1 Cl6,6.0,1
mp-1205998,Rb3TmF6,-3.56506299125,3,"[Element F, Element Rb, Element Tm]",Cubic,Fm-3m,10,Rb3 Tm1 F6,6.0,1
mp-1113821,Rb3VF6,-3.04110724524999,3,"[Element F, Element Rb, Element V]",Cubic,Fm-3m,10,Rb3 V1 F6,6.0,1
mp-1114104,Rb3YBr6,-2.11502790725,3,"[Element Br, Element Rb, Element Y]",Cubic,Fm-3m,10,Rb3 Y1 Br6,6.0,1
mp-1110724,Rb3YCl6,-2.44290566325,3,"[Element Cl, Element Rb, Element Y]",Cubic,Fm-3m,10,Rb3 Y1 Cl6,6.0,1
mp-1113917,Rb3YF6,-3.51837411625,3,"[Element F, Element Rb, Element Y]",Cubic,Fm-3m,10,Rb3 Y1 F6,6.0,1
mp-1114152,Rb3YI6,-1.6426537682500002,3,"[Element I, Element Rb, Element Y]",Cubic,Fm-3m,10,Rb3 Y1 I6,6.0,1
mp-1205752,Rb3YbF6,-3.541985616874998,3,"[Element F, Element Rb, Element Yb]",Cubic,Fm-3m,10,Rb3 Yb1 F6,6.0,1
mp-1110627,RbNa2AlF6,-3.189408286025862,4,"[Element Al, Element F, Element Na, Element Rb]",Cubic,Fm-3m,10,Rb1 Na2 Al1 F6,6.0,1
mp-1111406,RbNa2AsF6,-2.517516174775862,4,"[Element As, Element F, Element Na, Element Rb]",Cubic,Fm-3m,10,Rb1 Na2 As1 F6,6.0,1
mp-1110626,RbNa2CoF6,-2.481677368025862,4,"[Element Co, Element F, Element Na, Element Rb]",Cubic,Fm-3m,10,Rb1 Na2 Co1 F6,6.0,1
mp-1110625,RbNa2CrF6,-2.850811771025862,4,"[Element Cr, Element F, Element Na, Element Rb]",Cubic,Fm-3m,10,Rb1 Na2 Cr1 F6,6.0,1
mp-1110624,RbNa2FeF6,-2.645681807025862,4,"[Element F, Element Fe, Element Na, Element Rb]",Cubic,Fm-3m,10,Rb1 Na2 Fe1 F6,6.0,1
mp-1110623,RbNa2GaF6,-2.817508295775861,4,"[Element F, Element Ga, Element Na, Element Rb]",Cubic,Fm-3m,10,Rb1 Na2 Ga1 F6,6.0,1
mp-1110622,RbNa2NiF6,-2.353891747025862,4,"[Element F, Element Na, Element Ni, Element Rb]",Cubic,Fm-3m,10,Rb1 Na2 Ni1 F6,6.0,1
mp-1205824,ScTl3F6,-2.805698890499997,3,"[Element F, Element Sc, Element Tl]",Cubic,Fm-3m,10,Sc1 Tl3 F6,6.0,1
mp-1208163,TiTl2BF6,-2.130824644916668,4,"[Element B, Element F, Element Ti, Element Tl]",Cubic,Fm-3m,10,Ti1 Tl2 B1 F6,6.0,1
mp-15635,TiTl3F6,-2.653224633333335,3,"[Element F, Element Ti, Element Tl]",Cubic,Fm-3m,10,Ti1 Tl3 F6,6.0,1
mp-989555,Tl2InGaF6,-2.381190492083334,4,"[Element F, Element Ga, Element In, Element Tl]",Cubic,Fm-3m,10,Tl2 In1 Ga1 F6,6.0,1
mp-1205742,Tl3CrF6,-2.447200462000004,3,"[Element Cr, Element F, Element Tl]",Cubic,Fm-3m,10,Tl3 Cr1 F6,6.0,1
mp-1205667,Tl3FeF6,-2.278096453,3,"[Element F, Element Fe, Element Tl]",Cubic,Fm-3m,10,Tl3 Fe1 F6,6.0,1
mp-1205554,Tl3GaF6,-2.311866914,3,"[Element F, Element Ga, Element Tl]",Cubic,Fm-3m,10,Tl3 Ga1 F6,6.0,1
mp-1205535,Tl3VF6,-2.370383564999997,3,"[Element F, Element Tl, Element V]",Cubic,Fm-3m,10,Tl3 V1 F6,6.0,1
mp-1205508,VAg3F6,-1.823076867299982,3,"[Element Ag, Element F, Element V]",Cubic,Fm-3m,10,V1 Ag3 F6,6.0,1