material_id,pretty_formula,formation_energy_per_atom,num_elements,elements,crystal_system,space_group_symbol,nsites,composition,num_halogens,num_unique_halogen_types
mp-1112501,Cs2TlBiI6,-1.170902798264369,4,"[Element Bi, Element Cs, Element I, Element Tl]",Cubic,Fm-3m,10,Cs2 Tl1 Bi1 I6,6.0,1
mp-1112565,Cs2TlCoF6,-2.50312712826437,4,"[Element Co, Element Cs, Element F, Element Tl]",Cubic,Fm-3m,10,Cs2 Tl1 Co1 F6,6.0,1
mp-1112495,Cs2TlCrF6,-2.8909923052643682,4,"[Element Cr, Element Cs, Element F, Element Tl]",Cubic,Fm-3m,10,Cs2 Tl1 Cr1 F6,6.0,1
mp-1113558,Cs2TlCuBr6,-1.337138791264368,4,"[Element Br, Element Cs, Element Cu, Element Tl]",Cubic,Fm-3m,10,Cs2 Tl1 Cu1 Br6,6.0,1
mp-1113205,Cs2TlCuCl6,-1.5713470202643691,4,"[Element Cl, Element Cs, Element Cu, Element Tl]",Cubic,Fm-3m,10,Cs2 Tl1 Cu1 Cl6,6.0,1
mp-1112637,Cs2TlCuF6,-2.332421550263185,4,"[Element Cs, Element Cu, Element F, Element Tl]",Cubic,Fm-3m,10,Cs2 Tl1 Cu1 F6,6.0,1
mp-504603,Cs2TlFeF6,-2.7245106522643683,4,"[Element Cs, Element F, Element Fe, Element Tl]",Cubic,Fm-3m,10,Cs2 Tl1 Fe1 F6,6.0,1
mp-1112492,Cs2TlGaBr6,-1.536351602014368,4,"[Element Br, Element Cs, Element Ga, Element Tl]",Cubic,Fm-3m,10,Cs2 Tl1 Ga1 Br6,6.0,1
mp-1112002,Cs2TlGaCl6,-1.8234810050143682,4,"[Element Cl, Element Cs, Element Ga, Element Tl]",Cubic,Fm-3m,10,Cs2 Tl1 Ga1 Cl6,6.0,1
mp-989558,Cs2TlGaF6,-2.851459309014368,4,"[Element Cs, Element F, Element Ga, Element Tl]",Cubic,Fm-3m,10,Cs2 Tl1 Ga1 F6,6.0,1
mp-1112110,Cs2TlGaI6,-1.123866864014369,4,"[Element Cs, Element Ga, Element I, Element Tl]",Cubic,Fm-3m,10,Cs2 Tl1 Ga1 I6,6.0,1
mp-1112900,Cs2TlHgBr6,-1.3793292675143691,4,"[Element Br, Element Cs, Element Hg, Element Tl]",Cubic,Fm-3m,10,Cs2 Tl1 Hg1 Br6,6.0,1
mp-1113292,Cs2TlHgCl6,-1.593100511514369,4,"[Element Cl, Element Cs, Element Hg, Element Tl]",Cubic,Fm-3m,10,Cs2 Tl1 Hg1 Cl6,6.0,1
mp-1113141,Cs2TlHgF6,-2.344871768514369,4,"[Element Cs, Element F, Element Hg, Element Tl]",Cubic,Fm-3m,10,Cs2 Tl1 Hg1 F6,6.0,1
mp-1113282,Cs2TlHgI6,-1.039823000514369,4,"[Element Cs, Element Hg, Element I, Element Tl]",Cubic,Fm-3m,10,Cs2 Tl1 Hg1 I6,6.0,1
mp-996944,Cs2TlInBr6,-1.577039565931035,4,"[Element Br, Element Cs, Element In, Element Tl]",Cubic,Fm-3m,10,Cs2 Tl1 In1 Br6,6.0,1
mp-1112490,Cs2TlInCl6,-1.849192811931035,4,"[Element Cl, Element Cs, Element In, Element Tl]",Cubic,Fm-3m,10,Cs2 Tl1 In1 Cl6,6.0,1
mp-989537,Cs2TlInF6,-2.787644960931035,4,"[Element Cs, Element F, Element In, Element Tl]",Cubic,Fm-3m,10,Cs2 Tl1 In1 F6,6.0,1
mp-1112107,Cs2TlInI6,-1.174716372931035,4,"[Element Cs, Element I, Element In, Element Tl]",Cubic,Fm-3m,10,Cs2 Tl1 In1 I6,6.0,1
mp-560710,Cs2TlMoF6,-2.7601947402643683,4,"[Element Cs, Element F, Element Mo, Element Tl]",Cubic,Fm-3m,10,Cs2 Tl1 Mo1 F6,6.0,1
mp-1112343,Cs2TlPdF6,-2.221543550500001,4,"[Element Cs, Element F, Element Pd, Element Tl]",Cubic,Fm-3m,10,Cs2 Tl1 Pd1 F6,6.0,1
mp-1112340,Cs2TlRhF6,-2.422730792264368,4,"[Element Cs, Element F, Element Rh, Element Tl]",Cubic,Fm-3m,10,Cs2 Tl1 Rh1 F6,6.0,1
mp-1112339,Cs2TlRuF6,-2.4047394292643682,4,"[Element Cs, Element F, Element Ru, Element Tl]",Cubic,Fm-3m,10,Cs2 Tl1 Ru1 F6,6.0,1
mp-1112108,Cs2TlSbBr6,-1.500406737264369,4,"[Element Br, Element Cs, Element Sb, Element Tl]",Cubic,Fm-3m,10,Cs2 Tl1 Sb1 Br6,6.0,1
mp-1112003,Cs2TlSbCl6,-1.750358806264368,4,"[Element Cl, Element Cs, Element Sb, Element Tl]",Cubic,Fm-3m,10,Cs2 Tl1 Sb1 Cl6,6.0,1
mp-1112551,Cs2TlSbF6,-2.678376275264368,4,"[Element Cs, Element F, Element Sb, Element Tl]",Cubic,Fm-3m,10,Cs2 Tl1 Sb1 F6,6.0,1
mp-1112105,Cs2TlSbI6,-1.127291882264368,4,"[Element Cs, Element I, Element Sb, Element Tl]",Cubic,Fm-3m,10,Cs2 Tl1 Sb1 I6,6.0,1
mp-557533,Cs2TlVF6,-2.948574419264369,4,"[Element Cs, Element F, Element Tl, Element V]",Cubic,Fm-3m,10,Cs2 Tl1 V1 F6,6.0,1
mp-1111447,Cs2TmCuCl6,-2.02414600125,4,"[Element Cl, Element Cs, Element Cu, Element Tm]",Cubic,Fm-3m,10,Cs2 Tm1 Cu1 Cl6,6.0,1
mp-1112639,Cs2VAgF6,-2.736490122166665,4,"[Element Ag, Element Cs, Element F, Element V]",Cubic,Fm-3m,10,Cs2 V1 Ag1 F6,6.0,1
mp-1112323,Cs2YAgBr6,-1.9004306030977012,4,"[Element Ag, Element Br, Element Cs, Element Y]",Cubic,Fm-3m,10,Cs2 Y1 Ag1 Br6,6.0,1
mp-1112288,Cs2YAgCl6,-2.207876866097701,4,"[Element Ag, Element Cl, Element Cs, Element Y]",Cubic,Fm-3m,10,Cs2 Y1 Ag1 Cl6,6.0,1
mp-1110987,Cs2YAgF6,-3.207796222097701,4,"[Element Ag, Element Cs, Element F, Element Y]",Cubic,Fm-3m,10,Cs2 Y1 Ag1 F6,6.0,1
mp-1112931,Cs2YAgI6,-1.4560710330977011,4,"[Element Ag, Element Cs, Element I, Element Y]",Cubic,Fm-3m,10,Cs2 Y1 Ag1 I6,6.0,1
mp-1112918,Cs2YAuBr6,-1.7802310989310342,4,"[Element Au, Element Br, Element Cs, Element Y]",Cubic,Fm-3m,10,Cs2 Y1 Au1 Br6,6.0,1
mp-1112919,Cs2YAuCl6,-1.928428167749996,4,"[Element Au, Element Cl, Element Cs, Element Y]",Cubic,Fm-3m,10,Cs2 Y1 Au1 Cl6,6.0,1
mp-1113108,Cs2YAuF6,-2.3129444361666742,4,"[Element Au, Element Cs, Element F, Element Y]",Cubic,Fm-3m,10,Cs2 Y1 Au1 F6,6.0,1
mp-1112916,Cs2YAuI6,-1.361819761931035,4,"[Element Au, Element Cs, Element I, Element Y]",Cubic,Fm-3m,10,Cs2 Y1 Au1 I6,6.0,1
mp-1111878,Cs2YCuBr6,-1.841111695931034,4,"[Element Br, Element Cs, Element Cu, Element Y]",Cubic,Fm-3m,10,Cs2 Y1 Cu1 Br6,6.0,1
mp-1112909,Cs2YCuCl6,-2.022476435000006,4,"[Element Cl, Element Cs, Element Cu, Element Y]",Cubic,Fm-3m,10,Cs2 Y1 Cu1 Cl6,6.0,1
mp-1110977,Cs2YCuF6,-3.15294846552083,4,"[Element Cs, Element Cu, Element F, Element Y]",Cubic,Fm-3m,10,Cs2 Y1 Cu1 F6,6.0,1
mp-1112877,Cs2YCuI6,-1.390349050931035,4,"[Element Cs, Element Cu, Element I, Element Y]",Cubic,Fm-3m,10,Cs2 Y1 Cu1 I6,6.0,1
mp-1112897,Cs2YHgBr6,-1.827719125181035,4,"[Element Br, Element Cs, Element Hg, Element Y]",Cubic,Fm-3m,10,Cs2 Y1 Hg1 Br6,6.0,1
mp-1112898,Cs2YHgCl6,-2.120264513181035,4,"[Element Cl, Element Cs, Element Hg, Element Y]",Cubic,Fm-3m,10,Cs2 Y1 Hg1 Cl6,6.0,1
mp-1112607,Cs2YHgF6,-3.131471416181035,4,"[Element Cs, Element F, Element Hg, Element Y]",Cubic,Fm-3m,10,Cs2 Y1 Hg1 F6,6.0,1
mp-1112895,Cs2YHgI6,-1.400235686181035,4,"[Element Cs, Element Hg, Element I, Element Y]",Cubic,Fm-3m,10,Cs2 Y1 Hg1 I6,6.0,1
mp-1113063,Cs2YInBr6,-1.9565378755977,4,"[Element Br, Element Cs, Element In, Element Y]",Cubic,Fm-3m,10,Cs2 Y1 In1 Br6,6.0,1
mp-1112628,Cs2YInCl6,-2.134735461854148,4,"[Element Cl, Element Cs, Element In, Element Y]",Cubic,Fm-3m,10,Cs2 Y1 In1 Cl6,6.0,1
mp-1113062,Cs2YInF6,-3.320911532999997,4,"[Element Cs, Element F, Element In, Element Y]",Cubic,Fm-3m,10,Cs2 Y1 In1 F6,6.0,1
mp-1112795,Cs2YInI6,-1.505596727597701,4,"[Element Cs, Element I, Element In, Element Y]",Cubic,Fm-3m,10,Cs2 Y1 In1 I6,6.0,1
mp-1112106,Cs2YTlBr6,-1.998179181264368,4,"[Element Br, Element Cs, Element Tl, Element Y]",Cubic,Fm-3m,10,Cs2 Y1 Tl1 Br6,6.0,1
mp-1112103,Cs2YTlCl6,-2.310220579264368,4,"[Element Cl, Element Cs, Element Tl, Element Y]",Cubic,Fm-3m,10,Cs2 Y1 Tl1 Cl6,6.0,1
mp-1112482,Cs2YTlF6,-3.327059235999999,4,"[Element Cs, Element F, Element Tl, Element Y]",Cubic,Fm-3m,10,Cs2 Y1 Tl1 F6,6.0,1
mp-1112156,Cs2YTlI6,-1.5453325372643691,4,"[Element Cs, Element I, Element Tl, Element Y]",Cubic,Fm-3m,10,Cs2 Y1 Tl1 I6,6.0,1
mp-1112379,Cs3AlBr6,-1.826127678896551,3,"[Element Al, Element Br, Element Cs]",Cubic,Fm-3m,10,Cs3 Al1 Br6,6.0,1
mp-1113233,Cs3AlCl6,-2.013091033499998,3,"[Element Al, Element Cl, Element Cs]",Cubic,Fm-3m,10,Cs3 Al1 Cl6,6.0,1
mp-1113118,Cs3AlF6,-3.390822127999999,3,"[Element Al, Element Cs, Element F]",Cubic,Fm-3m,10,Cs3 Al1 F6,6.0,1
mp-1112654,Cs3AlI6,-1.356171234896552,3,"[Element Al, Element Cs, Element I]",Cubic,Fm-3m,10,Cs3 Al1 I6,6.0,1
mp-1112376,Cs3AsBr6,-1.5591350106465511,3,"[Element As, Element Br, Element Cs]",Cubic,Fm-3m,10,Cs3 As1 Br6,6.0,1
mp-1112373,Cs3AsCl6,-1.816354259646551,3,"[Element As, Element Cl, Element Cs]",Cubic,Fm-3m,10,Cs3 As1 Cl6,6.0,1
mp-1113159,Cs3AsF6,-2.750464199646551,3,"[Element As, Element Cs, Element F]",Cubic,Fm-3m,10,Cs3 As1 F6,6.0,1
mp-1112951,Cs3AsI6,-1.1831171806465521,3,"[Element As, Element Cs, Element I]",Cubic,Fm-3m,10,Cs3 As1 I6,6.0,1
mp-1112982,Cs3AuBr6,-1.364355470896552,3,"[Element Au, Element Br, Element Cs]",Cubic,Fm-3m,10,Cs3 Au1 Br6,6.0,1
mp-1112980,Cs3BiBr6,-1.694286085896552,3,"[Element Bi, Element Br, Element Cs]",Cubic,Fm-3m,10,Cs3 Bi1 Br6,6.0,1
mp-1112371,Cs3BiCl6,-1.774957880499991,3,"[Element Bi, Element Cl, Element Cs]",Cubic,Fm-3m,10,Cs3 Bi1 Cl6,6.0,1
mp-1112606,Cs3BiF6,-2.775970918499999,3,"[Element Bi, Element Cs, Element F]",Cubic,Fm-3m,10,Cs3 Bi1 F6,6.0,1
mp-1112977,Cs3BiI6,-1.302196187896552,3,"[Element Bi, Element Cs, Element I]",Cubic,Fm-3m,10,Cs3 Bi1 I6,6.0,1
mp-1112370,Cs3CeCl6,-2.327281017499999,3,"[Element Ce, Element Cl, Element Cs]",Cubic,Fm-3m,10,Cs3 Ce1 Cl6,6.0,1
mp-632715,Cs3CeF6,-3.461380038896552,3,"[Element Ce, Element Cs, Element F]",Cubic,Fm-3m,10,Cs3 Ce1 F6,6.0,1
mp-1206497,Cs3CoF6,-2.661095949896553,3,"[Element Co, Element Cs, Element F]",Cubic,Fm-3m,10,Cs3 Co1 F6,6.0,1
mp-1206092,Cs3DyCl6,-2.3682019679999993,3,"[Element Cl, Element Cs, Element Dy]",Cubic,Fm-3m,10,Cs3 Dy1 Cl6,6.0,1
mp-1112369,Cs3ErCl6,-2.371759285583329,3,"[Element Cl, Element Cs, Element Er]",Cubic,Fm-3m,10,Cs3 Er1 Cl6,6.0,1
mp-1206721,Cs3EuCl6,-2.16684485125001,3,"[Element Cl, Element Cs, Element Eu]",Cubic,Fm-3m,10,Cs3 Eu1 Cl6,6.0,1
mp-1205629,Cs3FeF6,-2.89650030189655,3,"[Element Cs, Element F, Element Fe]",Cubic,Fm-3m,10,Cs3 Fe1 F6,6.0,1
mp-1112368,Cs3GaBr6,-1.684047033646552,3,"[Element Br, Element Cs, Element Ga]",Cubic,Fm-3m,10,Cs3 Ga1 Br6,6.0,1
mp-1113231,Cs3GaCl6,-1.984336594646551,3,"[Element Cl, Element Cs, Element Ga]",Cubic,Fm-3m,10,Cs3 Ga1 Cl6,6.0,1
mp-1113117,Cs3GaF6,-3.026964315646551,3,"[Element Cs, Element F, Element Ga]",Cubic,Fm-3m,10,Cs3 Ga1 F6,6.0,1
mp-1114197,Cs3GaI6,-1.255139862646552,3,"[Element Cs, Element Ga, Element I]",Cubic,Fm-3m,10,Cs3 Ga1 I6,6.0,1
mp-1112364,Cs3GdCl6,-2.344684011749998,3,"[Element Cl, Element Cs, Element Gd]",Cubic,Fm-3m,10,Cs3 Gd1 Cl6,6.0,1
mp-1206492,Cs3HoCl6,-2.480853079396551,3,"[Element Cl, Element Cs, Element Ho]",Cubic,Fm-3m,10,Cs3 Ho1 Cl6,6.0,1
mp-1112651,Cs3InBr6,-1.7254261675632132,3,"[Element Br, Element Cs, Element In]",Cubic,Fm-3m,10,Cs3 In1 Br6,6.0,1
mp-1112991,Cs3InCl6,-1.879228522000016,3,"[Element Cl, Element Cs, Element In]",Cubic,Fm-3m,10,Cs3 In1 Cl6,6.0,1
mp-1112970,Cs3InF6,-2.930455700999999,3,"[Element Cs, Element F, Element In]",Cubic,Fm-3m,10,Cs3 In1 F6,6.0,1
mp-1112969,Cs3InI6,-1.308575114563219,3,"[Element Cs, Element I, Element In]",Cubic,Fm-3m,10,Cs3 In1 I6,6.0,1
mp-1112652,Cs3LaCl6,-2.372618786749998,3,"[Element Cl, Element Cs, Element La]",Cubic,Fm-3m,10,Cs3 La1 Cl6,6.0,1
mp-1113156,Cs3PdF6,-2.396905287500002,3,"[Element Cs, Element F, Element Pd]",Cubic,Fm-3m,10,Cs3 Pd1 F6,6.0,1
mp-1112362,Cs3PrCl6,-2.450184421063219,3,"[Element Cl, Element Cs, Element Pr]",Cubic,Fm-3m,10,Cs3 Pr1 Cl6,6.0,1
mp-1206084,Cs3PrF6,-3.410153749166667,3,"[Element Cs, Element F, Element Pr]",Cubic,Fm-3m,10,Cs3 Pr1 F6,6.0,1
mp-1112952,Cs3SbBr6,-1.640232474896552,3,"[Element Br, Element Cs, Element Sb]",Cubic,Fm-3m,10,Cs3 Sb1 Br6,6.0,1
mp-1112353,Cs3SbCl6,-1.901275257896551,3,"[Element Cl, Element Cs, Element Sb]",Cubic,Fm-3m,10,Cs3 Sb1 Cl6,6.0,1
mp-1112602,Cs3SbF6,-2.842907090896552,3,"[Element Cs, Element F, Element Sb]",Cubic,Fm-3m,10,Cs3 Sb1 F6,6.0,1
mp-1112968,Cs3SbI6,-1.254157533896552,3,"[Element Cs, Element I, Element Sb]",Cubic,Fm-3m,10,Cs3 Sb1 I6,6.0,1
mp-1112351,Cs3ScBr6,-2.091842811396552,3,"[Element Br, Element Cs, Element Sc]",Cubic,Fm-3m,10,Cs3 Sc1 Br6,6.0,1
mp-1112350,Cs3ScCl6,-2.298997727249994,3,"[Element Cl, Element Cs, Element Sc]",Cubic,Fm-3m,10,Cs3 Sc1 Cl6,6.0,1
mp-1112965,Cs3ScF6,-3.5019340905,3,"[Element Cs, Element F, Element Sc]",Cubic,Fm-3m,10,Cs3 Sc1 F6,6.0,1
mp-1113076,Cs3ScI6,-1.624866260396552,3,"[Element Cs, Element I, Element Sc]",Cubic,Fm-3m,10,Cs3 Sc1 I6,6.0,1
mp-1112348,Cs3SmCl6,-2.329584442500001,3,"[Element Cl, Element Cs, Element Sm]",Cubic,Fm-3m,10,Cs3 Sm1 Cl6,6.0,1
mp-1112345,Cs3TbCl6,-2.349155768499997,3,"[Element Cl, Element Cs, Element Tb]",Cubic,Fm-3m,10,Cs3 Tb1 Cl6,6.0,1
mp-696965,Cs3TbF6,-3.508558099000001,3,"[Element Cs, Element F, Element Tb]",Cubic,Fm-3m,10,Cs3 Tb1 F6,6.0,1
mp-1112963,Cs3TiF6,-3.258918559229883,3,"[Element Cs, Element F, Element Ti]",Cubic,Fm-3m,10,Cs3 Ti1 F6,6.0,1
mp-1112647,Cs3TlBr6,-1.578036252229886,3,"[Element Br, Element Cs, Element Tl]",Cubic,Fm-3m,10,Cs3 Tl1 Br6,6.0,1
mp-1112344,Cs3TlCl6,-1.828544490229886,3,"[Element Cl, Element Cs, Element Tl]",Cubic,Fm-3m,10,Cs3 Tl1 Cl6,6.0,1
mp-1113152,Cs3TlF6,-2.595313336000001,3,"[Element Cs, Element F, Element Tl]",Cubic,Fm-3m,10,Cs3 Tl1 F6,6.0,1
mp-1112949,Cs3TlI6,-1.196527383229886,3,"[Element Cs, Element I, Element Tl]",Cubic,Fm-3m,10,Cs3 Tl1 I6,6.0,1
mp-1112342,Cs3TmCl6,-2.372692741249997,3,"[Element Cl, Element Cs, Element Tm]",Cubic,Fm-3m,10,Cs3 Tm1 Cl6,6.0,1
mp-1206041,Cs3VF6,-3.104529692,3,"[Element Cs, Element F, Element V]",Cubic,Fm-3m,10,Cs3 V1 F6,6.0,1
mp-1112645,Cs3YBr6,-2.154735999896552,3,"[Element Br, Element Cs, Element Y]",Cubic,Fm-3m,10,Cs3 Y1 Br6,6.0,1
mp-1112341,Cs3YCl6,-2.367006964249998,3,"[Element Cl, Element Cs, Element Y]",Cubic,Fm-3m,10,Cs3 Y1 Cl6,6.0,1
mp-1113151,Cs3YF6,-3.5111850959999993,3,"[Element Cs, Element F, Element Y]",Cubic,Fm-3m,10,Cs3 Y1 F6,6.0,1
mp-1112962,Cs3YI6,-1.6910098568965521,3,"[Element Cs, Element I, Element Y]",Cubic,Fm-3m,10,Cs3 Y1 I6,6.0,1
mp-1112328,CsK2AlBr6,-1.724880192415517,4,"[Element Al, Element Br, Element Cs, Element K]",Cubic,Fm-3m,10,Cs1 K2 Al1 Br6,6.0,1
mp-1112327,CsK2AlCl6,-2.072619832415517,4,"[Element Al, Element Cl, Element Cs, Element K]",Cubic,Fm-3m,10,Cs1 K2 Al1 Cl6,6.0,1
mp-1112319,CsK2AlF6,-3.319671709415517,4,"[Element Al, Element Cs, Element F, Element K]",Cubic,Fm-3m,10,Cs1 K2 Al1 F6,6.0,1
mp-1112057,CsK2AlI6,-1.248823902415517,4,"[Element Al, Element Cs, Element I, Element K]",Cubic,Fm-3m,10,Cs1 K2 Al1 I6,6.0,1
mp-1112325,CsK2AsBr6,-1.4520213431655171,4,"[Element As, Element Br, Element Cs, Element K]",Cubic,Fm-3m,10,Cs1 K2 As1 Br6,6.0,1
mp-1112054,CsK2AsCl6,-1.712026125165517,4,"[Element As, Element Cl, Element Cs, Element K]",Cubic,Fm-3m,10,Cs1 K2 As1 Cl6,6.0,1
mp-1112326,CsK2AsF6,-2.668328153165517,4,"[Element As, Element Cs, Element F, Element K]",Cubic,Fm-3m,10,Cs1 K2 As1 F6,6.0,1
mp-1112322,CsK2AuF6,-2.209982249415517,4,"[Element Au, Element Cs, Element F, Element K]",Cubic,Fm-3m,10,Cs1 K2 Au1 F6,6.0,1
mp-1112335,K2CeAgF6,-3.072455072616666,4,"[Element Ag, Element Ce, Element F, Element K]",Cubic,Fm-3m,10,K2 Ce1 Ag1 F6,6.0,1
mp-1110967,K2CeAgI6,-1.354844943616666,4,"[Element Ag, Element Ce, Element I, Element K]",Cubic,Fm-3m,10,K2 Ce1 Ag1 I6,6.0,1
mp-1111996,K2CeAuCl6,-1.961300060449999,4,"[Element Au, Element Ce, Element Cl, Element K]",Cubic,Fm-3m,10,K2 Ce1 Au1 Cl6,6.0,1
mp-1112553,K2CeCuBr6,-1.755652250449999,4,"[Element Br, Element Ce, Element Cu, Element K]",Cubic,Fm-3m,10,K2 Ce1 Cu1 Br6,6.0,1
mp-1112237,K2CeCuCl6,-1.9621458377500032,4,"[Element Ce, Element Cl, Element Cu, Element K]",Cubic,Fm-3m,10,K2 Ce1 Cu1 Cl6,6.0,1
mp-1112048,K2CeCuI6,-1.302416412449999,4,"[Element Ce, Element Cu, Element I, Element K]",Cubic,Fm-3m,10,K2 Ce1 Cu1 I6,6.0,1
mp-1112236,K2CoHgF6,-2.267127319700001,4,"[Element Co, Element F, Element Hg, Element K]",Cubic,Fm-3m,10,K2 Co1 Hg1 F6,6.0,1
mp-1112287,K2CrAgF6,-2.721524893616666,4,"[Element Ag, Element Cr, Element F, Element K]",Cubic,Fm-3m,10,K2 Cr1 Ag1 F6,6.0,1
mp-1111943,K2CrAuF6,-2.53201195645,4,"[Element Au, Element Cr, Element F, Element K]",Cubic,Fm-3m,10,K2 Cr1 Au1 F6,6.0,1
mp-1111939,K2CrCuF6,-2.7107377544499993,4,"[Element Cr, Element Cu, Element F, Element K]",Cubic,Fm-3m,10,K2 Cr1 Cu1 F6,6.0,1
mp-1111938,K2CrHgF6,-2.6325176997,4,"[Element Cr, Element F, Element Hg, Element K]",Cubic,Fm-3m,10,K2 Cr1 Hg1 F6,6.0,1
mp-1112251,K2CuAsF6,-2.3910848862,4,"[Element As, Element Cu, Element F, Element K]",Cubic,Fm-3m,10,K2 Cu1 As1 F6,6.0,1
mp-1111972,K2CuAuCl6,-1.366836456449999,4,"[Element Au, Element Cl, Element Cu, Element K]",Cubic,Fm-3m,10,K2 Cu1 Au1 Cl6,6.0,1
mp-1112010,K2CuAuF6,-2.122428195449999,4,"[Element Au, Element Cu, Element F, Element K]",Cubic,Fm-3m,10,K2 Cu1 Au1 F6,6.0,1
mp-1110910,K2CuBiBr6,-1.336068324449999,4,"[Element Bi, Element Br, Element Cu, Element K]",Cubic,Fm-3m,10,K2 Cu1 Bi1 Br6,6.0,1
mp-1110871,K2CuBiCl6,-1.60153208845,4,"[Element Bi, Element Cl, Element Cu, Element K]",Cubic,Fm-3m,10,K2 Cu1 Bi1 Cl6,6.0,1
mp-1110841,K2CuBiF6,-2.49143177645,4,"[Element Bi, Element Cu, Element F, Element K]",Cubic,Fm-3m,10,K2 Cu1 Bi1 F6,6.0,1
mp-1110946,K2CuBiI6,-0.945617429449999,4,"[Element Bi, Element Cu, Element I, Element K]",Cubic,Fm-3m,10,K2 Cu1 Bi1 I6,6.0,1
mp-1110870,K2CuMoBr6,-1.21932678445,4,"[Element Br, Element Cu, Element K, Element Mo]",Cubic,Fm-3m,10,K2 Cu1 Mo1 Br6,6.0,1
mp-1112380,K2CuMoCl6,-1.361970547152782,4,"[Element Cl, Element Cu, Element K, Element Mo]",Cubic,Fm-3m,10,K2 Cu1 Mo1 Cl6,6.0,1
mp-1110909,K2CuMoI6,-0.7947481334500001,4,"[Element Cu, Element I, Element K, Element Mo]",Cubic,Fm-3m,10,K2 Cu1 Mo1 I6,6.0,1
mp-1110906,K2CuSbBr6,-1.292170469449999,4,"[Element Br, Element Cu, Element K, Element Sb]",Cubic,Fm-3m,10,K2 Cu1 Sb1 Br6,6.0,1
mp-1110856,K2CuSbCl6,-1.337969083250001,4,"[Element Cl, Element Cu, Element K, Element Sb]",Cubic,Fm-3m,10,K2 Cu1 Sb1 Cl6,6.0,1
mp-1110839,K2CuSbF6,-2.46324798345,4,"[Element Cu, Element F, Element K, Element Sb]",Cubic,Fm-3m,10,K2 Cu1 Sb1 F6,6.0,1
mp-1110943,K2CuSbI6,-0.908549277449999,4,"[Element Cu, Element I, Element K, Element Sb]",Cubic,Fm-3m,10,K2 Cu1 Sb1 I6,6.0,1
mp-1112098,K2DyAgCl6,-2.136845571783333,4,"[Element Ag, Element Cl, Element Dy, Element K]",Cubic,Fm-3m,10,K2 Dy1 Ag1 Cl6,6.0,1
mp-1112074,K2DyAuCl6,-1.997442196616666,4,"[Element Au, Element Cl, Element Dy, Element K]",Cubic,Fm-3m,10,K2 Dy1 Au1 Cl6,6.0,1
mp-1111994,K2DyCuCl6,-1.9749679387500012,4,"[Element Cl, Element Cu, Element Dy, Element K]",Cubic,Fm-3m,10,K2 Dy1 Cu1 Cl6,6.0,1
mp-1112473,K2ErAgCl6,-2.1412248506166662,4,"[Element Ag, Element Cl, Element Er, Element K]",Cubic,Fm-3m,10,K2 Er1 Ag1 Cl6,6.0,1
mp-1112072,K2ErAuCl6,-2.001434957449999,4,"[Element Au, Element Cl, Element Er, Element K]",Cubic,Fm-3m,10,K2 Er1 Au1 Cl6,6.0,1
mp-1112164,K2ErCuCl6,-1.962646889833334,4,"[Element Cl, Element Cu, Element Er, Element K]",Cubic,Fm-3m,10,K2 Er1 Cu1 Cl6,6.0,1
mp-1112472,K2EuAgCl6,-1.986596208116667,4,"[Element Ag, Element Cl, Element Eu, Element K]",Cubic,Fm-3m,10,K2 Eu1 Ag1 Cl6,6.0,1
mp-1112428,K2EuAuCl6,-1.87955891895,4,"[Element Au, Element Cl, Element Eu, Element K]",Cubic,Fm-3m,10,K2 Eu1 Au1 Cl6,6.0,1
mp-1111984,K2EuCuCl6,-2.00735087195,4,"[Element Cl, Element Cu, Element Eu, Element K]",Cubic,Fm-3m,10,K2 Eu1 Cu1 Cl6,6.0,1
mp-1112286,K2FeAgF6,-2.5556410536166663,4,"[Element Ag, Element F, Element Fe, Element K]",Cubic,Fm-3m,10,K2 Fe1 Ag1 F6,6.0,1
mp-1111959,K2FeAuF6,-2.368636214449999,4,"[Element Au, Element F, Element Fe, Element K]",Cubic,Fm-3m,10,K2 Fe1 Au1 F6,6.0,1
mp-1111935,K2FeHgF6,-2.4787819927,4,"[Element F, Element Fe, Element Hg, Element K]",Cubic,Fm-3m,10,K2 Fe1 Hg1 F6,6.0,1
mp-1112470,K2GaAgBr6,-1.361663200366666,4,"[Element Ag, Element Br, Element Ga, Element K]",Cubic,Fm-3m,10,K2 Ga1 Ag1 Br6,6.0,1
mp-1112469,K2GaAgCl6,-1.6562644693666662,4,"[Element Ag, Element Cl, Element Ga, Element K]",Cubic,Fm-3m,10,K2 Ga1 Ag1 Cl6,6.0,1
mp-1112284,K2GaAgF6,-2.684092103366666,4,"[Element Ag, Element F, Element Ga, Element K]",Cubic,Fm-3m,10,K2 Ga1 Ag1 F6,6.0,1
mp-1112466,K2GaAgI6,-0.9506559563666661,4,"[Element Ag, Element Ga, Element I, Element K]",Cubic,Fm-3m,10,K2 Ga1 Ag1 I6,6.0,1
mp-1112070,K2GaAuBr6,-1.269336524199999,4,"[Element Au, Element Br, Element Ga, Element K]",Cubic,Fm-3m,10,K2 Ga1 Au1 Br6,6.0,1
mp-1112427,K2GaAuCl6,-1.5316420162000002,4,"[Element Au, Element Cl, Element Ga, Element K]",Cubic,Fm-3m,10,K2 Ga1 Au1 Cl6,6.0,1
mp-1112264,K2GaAuF6,-2.4938974002,4,"[Element Au, Element F, Element Ga, Element K]",Cubic,Fm-3m,10,K2 Ga1 Au1 F6,6.0,1
mp-1112071,K2GaAuI6,-0.9051468902,4,"[Element Au, Element Ga, Element I, Element K]",Cubic,Fm-3m,10,K2 Ga1 Au1 I6,6.0,1