material_id,pretty_formula,formation_energy_per_atom,num_elements,elements,crystal_system,space_group_symbol,nsites,composition,num_halogens,num_unique_halogen_types
mp-1111640,K2NaInBr6,-1.6352946842545961,4,"[Element Br, Element In, Element K, Element Na]",Cubic,Fm-3m,10,K2 Na1 In1 Br6,6.0,1
mp-1110862,K2NaInCl6,-1.945709482254597,4,"[Element Cl, Element In, Element K, Element Na]",Cubic,Fm-3m,10,K2 Na1 In1 Cl6,6.0,1
mp-6686,K2NaInF6,-2.9891306462545972,4,"[Element F, Element In, Element K, Element Na]",Cubic,Fm-3m,10,K2 Na1 In1 F6,6.0,1
mp-1111231,K2NaInI6,-1.190464217254597,4,"[Element I, Element In, Element K, Element Na]",Cubic,Fm-3m,10,K2 Na1 In1 I6,6.0,1
mp-1111884,K2NaIrF6,-2.5434955975879303,4,"[Element F, Element Ir, Element K, Element Na]",Cubic,Fm-3m,10,K2 Na1 Ir1 F6,6.0,1
mp-1111139,K2NaLaCl6,-2.313077244249997,4,"[Element Cl, Element K, Element La, Element Na]",Cubic,Fm-3m,10,K2 Na1 La1 Cl6,6.0,1
mp-1111639,K2NaLuCl6,-2.426990218254597,4,"[Element Cl, Element K, Element Lu, Element Na]",Cubic,Fm-3m,10,K2 Na1 Lu1 Cl6,6.0,1
mp-1111638,K2NaMnF6,-2.940437082381033,4,"[Element F, Element K, Element Mn, Element Na]",Cubic,Fm-3m,10,K2 Na1 Mn1 F6,6.0,1
mp-1110894,K2NaMoBr6,-1.512856311587931,4,"[Element Br, Element K, Element Mo, Element Na]",Cubic,Fm-3m,10,K2 Na1 Mo1 Br6,6.0,1
mp-1110861,K2NaMoCl6,-1.720503804583323,4,"[Element Cl, Element K, Element Mo, Element Na]",Cubic,Fm-3m,10,K2 Na1 Mo1 Cl6,6.0,1
mp-556487,K2NaMoF6,-2.9660800865879313,4,"[Element F, Element K, Element Mo, Element Na]",Cubic,Fm-3m,10,K2 Na1 Mo1 F6,6.0,1
mp-1110934,K2NaMoI6,-1.064971140587931,4,"[Element I, Element K, Element Mo, Element Na]",Cubic,Fm-3m,10,K2 Na1 Mo1 I6,6.0,1
mp-1111104,K2NaNbF6,-2.99299688858793,4,"[Element F, Element K, Element Na, Element Nb]",Cubic,Fm-3m,10,K2 Na1 Nb1 F6,6.0,1
mp-1110933,K2NaNdBr6,-2.05903044233793,4,"[Element Br, Element K, Element Na, Element Nd]",Cubic,Fm-3m,10,K2 Na1 Nd1 Br6,6.0,1
mp-1110893,K2NaNdCl6,-2.284371111250003,4,"[Element Cl, Element K, Element Na, Element Nd]",Cubic,Fm-3m,10,K2 Na1 Nd1 Cl6,6.0,1
mp-1110831,K2NaNdF6,-3.48382779633793,4,"[Element F, Element K, Element Na, Element Nd]",Cubic,Fm-3m,10,K2 Na1 Nd1 F6,6.0,1
mp-1110963,K2NaNdI6,-1.58009016033793,4,"[Element I, Element K, Element Na, Element Nd]",Cubic,Fm-3m,10,K2 Na1 Nd1 I6,6.0,1
mp-556757,K2NaNiF6,-2.611750915587931,4,"[Element F, Element K, Element Na, Element Ni]",Cubic,Fm-3m,10,K2 Na1 Ni1 F6,6.0,1
mp-1111627,K2NaPdF6,-2.48441523058793,4,"[Element F, Element K, Element Na, Element Pd]",Cubic,Fm-3m,10,K2 Na1 Pd1 F6,6.0,1
mp-1110932,K2NaPrBr6,-2.053687127754597,4,"[Element Br, Element K, Element Na, Element Pr]",Cubic,Fm-3m,10,K2 Na1 Pr1 Br6,6.0,1
mp-1110892,K2NaPrCl6,-2.275252412916669,4,"[Element Cl, Element K, Element Na, Element Pr]",Cubic,Fm-3m,10,K2 Na1 Pr1 Cl6,6.0,1
mp-1110830,K2NaPrF6,-3.465068962754597,4,"[Element F, Element K, Element Na, Element Pr]",Cubic,Fm-3m,10,K2 Na1 Pr1 F6,6.0,1
mp-1110962,K2NaPrI6,-1.5776783407545971,4,"[Element I, Element K, Element Na, Element Pr]",Cubic,Fm-3m,10,K2 Na1 Pr1 I6,6.0,1
mp-14039,K2NaRhF6,-2.63281606158793,4,"[Element F, Element K, Element Na, Element Rh]",Cubic,Fm-3m,10,K2 Na1 Rh1 F6,6.0,1
mp-1111874,K2NaRuF6,-2.619698995587931,4,"[Element F, Element K, Element Na, Element Ru]",Cubic,Fm-3m,10,K2 Na1 Ru1 F6,6.0,1
mp-1110891,K2NaSbBr6,-1.548959673587929,4,"[Element Br, Element K, Element Na, Element Sb]",Cubic,Fm-3m,10,K2 Na1 Sb1 Br6,6.0,1
mp-1110890,K2NaSbCl6,-1.640746519249997,4,"[Element Cl, Element K, Element Na, Element Sb]",Cubic,Fm-3m,10,K2 Na1 Sb1 Cl6,6.0,1
mp-1110829,K2NaSbF6,-2.86293187858793,4,"[Element F, Element K, Element Na, Element Sb]",Cubic,Fm-3m,10,K2 Na1 Sb1 F6,6.0,1
mp-1110961,K2NaSbI6,-1.13862011858793,4,"[Element I, Element K, Element Na, Element Sb]",Cubic,Fm-3m,10,K2 Na1 Sb1 I6,6.0,1
mp-1111649,K2NaScBr6,-2.01212666408793,4,"[Element Br, Element K, Element Na, Element Sc]",Cubic,Fm-3m,10,K2 Na1 Sc1 Br6,6.0,1
mp-1111621,K2NaScCl6,-2.240232137666674,4,"[Element Cl, Element K, Element Na, Element Sc]",Cubic,Fm-3m,10,K2 Na1 Sc1 Cl6,6.0,1
mp-6058,K2NaScF6,-3.56599070808793,4,"[Element F, Element K, Element Na, Element Sc]",Cubic,Fm-3m,10,K2 Na1 Sc1 F6,6.0,1
mp-1111618,K2NaScI6,-1.515416539087931,4,"[Element I, Element K, Element Na, Element Sc]",Cubic,Fm-3m,10,K2 Na1 Sc1 I6,6.0,1
mp-1111223,K2NaSmCl6,-2.402175737087931,4,"[Element Cl, Element K, Element Na, Element Sm]",Cubic,Fm-3m,10,K2 Na1 Sm1 Cl6,6.0,1
mp-1110889,K2NaTaBr6,-1.542657373321264,4,"[Element Br, Element K, Element Na, Element Ta]",Cubic,Fm-3m,10,K2 Na1 Ta1 Br6,6.0,1
mp-1112873,K2NaTaCl6,-1.884568399321264,4,"[Element Cl, Element K, Element Na, Element Ta]",Cubic,Fm-3m,10,K2 Na1 Ta1 Cl6,6.0,1
mp-1110828,K2NaTaF6,-2.9289763153212642,4,"[Element F, Element K, Element Na, Element Ta]",Cubic,Fm-3m,10,K2 Na1 Ta1 F6,6.0,1
mp-1111221,K2NaTaI6,-1.079783343321263,4,"[Element I, Element K, Element Na, Element Ta]",Cubic,Fm-3m,10,K2 Na1 Ta1 I6,6.0,1
mp-1111622,K2NaTbCl6,-2.31291194625,4,"[Element Cl, Element K, Element Na, Element Tb]",Cubic,Fm-3m,10,K2 Na1 Tb1 Cl6,6.0,1
mp-1111871,K2NaTiF6,-3.306311992921264,4,"[Element F, Element K, Element Na, Element Ti]",Cubic,Fm-3m,10,K2 Na1 Ti1 F6,6.0,1
mp-1111915,K2NaTlBr6,-1.484529931921265,4,"[Element Br, Element K, Element Na, Element Tl]",Cubic,Fm-3m,10,K2 Na1 Tl1 Br6,6.0,1
mp-1111616,K2NaTlCl6,-1.759131810921265,4,"[Element Cl, Element K, Element Na, Element Tl]",Cubic,Fm-3m,10,K2 Na1 Tl1 Cl6,6.0,1
mp-13798,K2NaTlF6,-2.693568741921265,4,"[Element F, Element K, Element Na, Element Tl]",Cubic,Fm-3m,10,K2 Na1 Tl1 F6,6.0,1
mp-1111222,K2NaTlI6,-1.079404686921265,4,"[Element I, Element K, Element Na, Element Tl]",Cubic,Fm-3m,10,K2 Na1 Tl1 I6,6.0,1
mp-1111615,K2NaTmCl6,-2.313449095083332,4,"[Element Cl, Element K, Element Na, Element Tm]",Cubic,Fm-3m,10,K2 Na1 Tm1 Cl6,6.0,1
mp-1080537,K2NaVF6,-3.163481748587931,4,"[Element F, Element K, Element Na, Element V]",Cubic,Fm-3m,10,K2 Na1 V1 F6,6.0,1
mp-1110888,K2NaYBr6,-2.06990499458793,4,"[Element Br, Element K, Element Na, Element Y]",Cubic,Fm-3m,10,K2 Na1 Y1 Br6,6.0,1
mp-1110860,K2NaYCl6,-2.314701851499999,4,"[Element Cl, Element K, Element Na, Element Y]",Cubic,Fm-3m,10,K2 Na1 Y1 Cl6,6.0,1
mp-13799,K2NaYF6,-3.547740040587931,4,"[Element F, Element K, Element Na, Element Y]",Cubic,Fm-3m,10,K2 Na1 Y1 F6,6.0,1
mp-1110826,K2NaYI6,-1.579217140587931,4,"[Element I, Element K, Element Na, Element Y]",Cubic,Fm-3m,10,K2 Na1 Y1 I6,6.0,1
mp-1112280,K2NbAgF6,-2.5928818616166662,4,"[Element Ag, Element F, Element K, Element Nb]",Cubic,Fm-3m,10,K2 Nb1 Ag1 F6,6.0,1
mp-1112494,K2NbAuF6,-2.564217577449999,4,"[Element Au, Element F, Element K, Element Nb]",Cubic,Fm-3m,10,K2 Nb1 Au1 F6,6.0,1
mp-1112365,K2NbHgF6,-2.7347258017,4,"[Element F, Element Hg, Element K, Element Nb]",Cubic,Fm-3m,10,K2 Nb1 Hg1 F6,6.0,1
mp-1111198,K2NbTlF6,-2.7183344557833333,4,"[Element F, Element K, Element Nb, Element Tl]",Cubic,Fm-3m,10,K2 Nb1 Tl1 F6,6.0,1
mp-1110916,K2NdAgBr6,-1.8063844393666662,4,"[Element Ag, Element Br, Element K, Element Nd]",Cubic,Fm-3m,10,K2 Nd1 Ag1 Br6,6.0,1
mp-1110915,K2NdAgCl6,-1.98374696675,4,"[Element Ag, Element Cl, Element K, Element Nd]",Cubic,Fm-3m,10,K2 Nd1 Ag1 Cl6,6.0,1
mp-1110850,K2NdAgF6,-3.093247290366665,4,"[Element Ag, Element F, Element K, Element Nd]",Cubic,Fm-3m,10,K2 Nd1 Ag1 F6,6.0,1
mp-1110950,K2NdAgI6,-1.364911975366666,4,"[Element Ag, Element I, Element K, Element Nd]",Cubic,Fm-3m,10,K2 Nd1 Ag1 I6,6.0,1
mp-1112422,K2NdAuCl6,-1.9717997982000002,4,"[Element Au, Element Cl, Element K, Element Nd]",Cubic,Fm-3m,10,K2 Nd1 Au1 Cl6,6.0,1
mp-1110908,K2NdCuBr6,-1.764102558199999,4,"[Element Br, Element Cu, Element K, Element Nd]",Cubic,Fm-3m,10,K2 Nd1 Cu1 Br6,6.0,1
mp-1112227,K2NdCuCl6,-1.9470927702499972,4,"[Element Cl, Element Cu, Element K, Element Nd]",Cubic,Fm-3m,10,K2 Nd1 Cu1 Cl6,6.0,1
mp-1112246,K2NdCuF6,-3.063690165199999,4,"[Element Cu, Element F, Element K, Element Nd]",Cubic,Fm-3m,10,K2 Nd1 Cu1 F6,6.0,1
mp-1110945,K2NdCuI6,-1.310633624199999,4,"[Element Cu, Element I, Element K, Element Nd]",Cubic,Fm-3m,10,K2 Nd1 Cu1 I6,6.0,1
mp-1111941,K2NiAuF6,-2.20911092745,4,"[Element Au, Element F, Element K, Element Ni]",Cubic,Fm-3m,10,K2 Ni1 Au1 F6,6.0,1
mp-1112157,K2NiHgF6,-2.418037982700001,4,"[Element F, Element Hg, Element K, Element Ni]",Cubic,Fm-3m,10,K2 Ni1 Hg1 F6,6.0,1
mp-1110914,K2PrAgBr6,-1.801512863783333,4,"[Element Ag, Element Br, Element K, Element Pr]",Cubic,Fm-3m,10,K2 Pr1 Ag1 Br6,6.0,1
mp-1110913,K2PrAgCl6,-2.102072147783333,4,"[Element Ag, Element Cl, Element K, Element Pr]",Cubic,Fm-3m,10,K2 Pr1 Ag1 Cl6,6.0,1
mp-1110849,K2PrAgF6,-3.075195209783333,4,"[Element Ag, Element F, Element K, Element Pr]",Cubic,Fm-3m,10,K2 Pr1 Ag1 F6,6.0,1
mp-1110966,K2PrAgI6,-1.362957491783333,4,"[Element Ag, Element I, Element K, Element Pr]",Cubic,Fm-3m,10,K2 Pr1 Ag1 I6,6.0,1
mp-1112421,K2PrAuCl6,-1.964214408616666,4,"[Element Au, Element Cl, Element K, Element Pr]",Cubic,Fm-3m,10,K2 Pr1 Au1 Cl6,6.0,1
mp-1110907,K2PrCuBr6,-1.759349270616666,4,"[Element Br, Element Cu, Element K, Element Pr]",Cubic,Fm-3m,10,K2 Pr1 Cu1 Br6,6.0,1
mp-1112220,K2PrCuCl6,-1.938068595916667,4,"[Element Cl, Element Cu, Element K, Element Pr]",Cubic,Fm-3m,10,K2 Pr1 Cu1 Cl6,6.0,1
mp-1110840,K2PrCuF6,-3.045364464616666,4,"[Element Cu, Element F, Element K, Element Pr]",Cubic,Fm-3m,10,K2 Pr1 Cu1 F6,6.0,1
mp-1110944,K2PrCuI6,-1.309019144616666,4,"[Element Cu, Element I, Element K, Element Pr]",Cubic,Fm-3m,10,K2 Pr1 Cu1 I6,6.0,1
mp-1111617,K2RbAlBr6,-1.7439746852,4,"[Element Al, Element Br, Element K, Element Rb]",Cubic,Fm-3m,10,K2 Rb1 Al1 Br6,6.0,1
mp-1111613,K2RbAlCl6,-2.0999662172,4,"[Element Al, Element Cl, Element K, Element Rb]",Cubic,Fm-3m,10,K2 Rb1 Al1 Cl6,6.0,1
mp-1111386,K2RbAlF6,-3.3692481742,4,"[Element Al, Element F, Element K, Element Rb]",Cubic,Fm-3m,10,K2 Rb1 Al1 F6,6.0,1
mp-1111610,K2RbAlI6,-1.259210377199999,4,"[Element Al, Element I, Element K, Element Rb]",Cubic,Fm-3m,10,K2 Rb1 Al1 I6,6.0,1
mp-1111609,K2RbAsBr6,-1.469449978949999,4,"[Element As, Element Br, Element K, Element Rb]",Cubic,Fm-3m,10,K2 Rb1 As1 Br6,6.0,1
mp-1111770,K2RbAsCl6,-1.737036064949999,4,"[Element As, Element Cl, Element K, Element Rb]",Cubic,Fm-3m,10,K2 Rb1 As1 Cl6,6.0,1
mp-1111443,K2RbAsF6,-2.713085384949999,4,"[Element As, Element F, Element K, Element Rb]",Cubic,Fm-3m,10,K2 Rb1 As1 F6,6.0,1
mp-1111606,K2RbAsI6,-1.08254078295,4,"[Element As, Element I, Element K, Element Rb]",Cubic,Fm-3m,10,K2 Rb1 As1 I6,6.0,1
mp-1111605,K2RbAuBr6,-1.2745533322,4,"[Element Au, Element Br, Element K, Element Rb]",Cubic,Fm-3m,10,K2 Rb1 Au1 Br6,6.0,1
mp-1111136,K2RbAuCl6,-1.4986389902,4,"[Element Au, Element Cl, Element K, Element Rb]",Cubic,Fm-3m,10,K2 Rb1 Au1 Cl6,6.0,1
mp-1111442,K2RbAuF6,-2.250814167199999,4,"[Element Au, Element F, Element K, Element Rb]",Cubic,Fm-3m,10,K2 Rb1 Au1 F6,6.0,1
mp-1110760,K2RbBiBr6,-1.5972092142,4,"[Element Bi, Element Br, Element K, Element Rb]",Cubic,Fm-3m,10,K2 Rb1 Bi1 Br6,6.0,1
mp-1110759,K2RbBiCl6,-1.8689340502,4,"[Element Bi, Element Cl, Element K, Element Rb]",Cubic,Fm-3m,10,K2 Rb1 Bi1 Cl6,6.0,1
mp-1110675,K2RbBiF6,-2.823674599199999,4,"[Element Bi, Element F, Element K, Element Rb]",Cubic,Fm-3m,10,K2 Rb1 Bi1 F6,6.0,1
mp-1110783,K2RbBiI6,-1.196437455199999,4,"[Element Bi, Element I, Element K, Element Rb]",Cubic,Fm-3m,10,K2 Rb1 Bi1 I6,6.0,1
mp-1110782,K2RbCeBr6,-2.037944424199999,4,"[Element Br, Element Ce, Element K, Element Rb]",Cubic,Fm-3m,10,K2 Rb1 Ce1 Br6,6.0,1
mp-1110758,K2RbCeCl6,-2.354184809199999,4,"[Element Ce, Element Cl, Element K, Element Rb]",Cubic,Fm-3m,10,K2 Rb1 Ce1 Cl6,6.0,1
mp-1110674,K2RbCeF6,-3.4017468592,4,"[Element Ce, Element F, Element K, Element Rb]",Cubic,Fm-3m,10,K2 Rb1 Ce1 F6,6.0,1
mp-1110781,K2RbCeI6,-1.574859577199999,4,"[Element Ce, Element I, Element K, Element Rb]",Cubic,Fm-3m,10,K2 Rb1 Ce1 I6,6.0,1
mp-1111385,K2RbCoF6,-2.662046084199999,4,"[Element Co, Element F, Element K, Element Rb]",Cubic,Fm-3m,10,K2 Rb1 Co1 F6,6.0,1
mp-1111217,K2RbCrF6,-3.0395630662,4,"[Element Cr, Element F, Element K, Element Rb]",Cubic,Fm-3m,10,K2 Rb1 Cr1 F6,6.0,1
mp-1111215,K2RbDyCl6,-2.397108685366666,4,"[Element Cl, Element Dy, Element K, Element Rb]",Cubic,Fm-3m,10,K2 Rb1 Dy1 Cl6,6.0,1
mp-1111216,K2RbErCl6,-2.401909932199999,4,"[Element Cl, Element Er, Element K, Element Rb]",Cubic,Fm-3m,10,K2 Rb1 Er1 Cl6,6.0,1
mp-1111213,K2RbGaBr6,-1.59928143995,4,"[Element Br, Element Ga, Element K, Element Rb]",Cubic,Fm-3m,10,K2 Rb1 Ga1 Br6,6.0,1
mp-1111600,K2RbGaCl6,-1.912425430949999,4,"[Element Cl, Element Ga, Element K, Element Rb]",Cubic,Fm-3m,10,K2 Rb1 Ga1 Cl6,6.0,1
mp-1111144,K2RbGaF6,-3.004221399949999,4,"[Element F, Element Ga, Element K, Element Rb]",Cubic,Fm-3m,10,K2 Rb1 Ga1 F6,6.0,1
mp-1111285,K2RbGaI6,-1.15638535195,4,"[Element Ga, Element I, Element K, Element Rb]",Cubic,Fm-3m,10,K2 Rb1 Ga1 I6,6.0,1
mp-1111214,K2RbGdCl6,-2.388967057199999,4,"[Element Cl, Element Gd, Element K, Element Rb]",Cubic,Fm-3m,10,K2 Rb1 Gd1 Cl6,6.0,1
mp-1111211,K2RbInBr6,-1.634905851866666,4,"[Element Br, Element In, Element K, Element Rb]",Cubic,Fm-3m,10,K2 Rb1 In1 Br6,6.0,1
mp-1111212,K2RbInCl6,-1.929434355866666,4,"[Element Cl, Element In, Element K, Element Rb]",Cubic,Fm-3m,10,K2 Rb1 In1 Cl6,6.0,1
mp-1111441,K2RbInF6,-2.914890396866666,4,"[Element F, Element In, Element K, Element Rb]",Cubic,Fm-3m,10,K2 Rb1 In1 F6,6.0,1
mp-1111440,K2RbIrF6,-2.468909647199999,4,"[Element F, Element Ir, Element K, Element Rb]",Cubic,Fm-3m,10,K2 Rb1 Ir1 F6,6.0,1
mp-1111209,K2RbLuCl6,-2.404058914866666,4,"[Element Cl, Element K, Element Lu, Element Rb]",Cubic,Fm-3m,10,K2 Rb1 Lu1 Cl6,6.0,1
mp-1111381,K2RbMnF6,-2.8627877729931033,4,"[Element F, Element K, Element Mn, Element Rb]",Cubic,Fm-3m,10,K2 Rb1 Mn1 F6,6.0,1
mp-1110757,K2RbMoBr6,-1.514152715199999,4,"[Element Br, Element K, Element Mo, Element Rb]",Cubic,Fm-3m,10,K2 Rb1 Mo1 Br6,6.0,1
mp-1110717,K2RbMoCl6,-1.8273822312,4,"[Element Cl, Element K, Element Mo, Element Rb]",Cubic,Fm-3m,10,K2 Rb1 Mo1 Cl6,6.0,1
mp-1110666,K2RbMoF6,-2.887130868199999,4,"[Element F, Element K, Element Mo, Element Rb]",Cubic,Fm-3m,10,K2 Rb1 Mo1 F6,6.0,1
mp-1110780,K2RbMoI6,-1.0838156572,4,"[Element I, Element K, Element Mo, Element Rb]",Cubic,Fm-3m,10,K2 Rb1 Mo1 I6,6.0,1
mp-1111116,K2RbNbF6,-2.914047165199999,4,"[Element F, Element K, Element Nb, Element Rb]",Cubic,Fm-3m,10,K2 Rb1 Nb1 F6,6.0,1
mp-1110779,K2RbNdBr6,-2.051648371949999,4,"[Element Br, Element K, Element Nd, Element Rb]",Cubic,Fm-3m,10,K2 Rb1 Nd1 Br6,6.0,1
mp-1110756,K2RbNdCl6,-2.36959559595,4,"[Element Cl, Element K, Element Nd, Element Rb]",Cubic,Fm-3m,10,K2 Rb1 Nd1 Cl6,6.0,1
mp-1110673,K2RbNdF6,-3.415484198949999,4,"[Element F, Element K, Element Nd, Element Rb]",Cubic,Fm-3m,10,K2 Rb1 Nd1 F6,6.0,1
mp-1110778,K2RbNdI6,-1.588414449949999,4,"[Element I, Element K, Element Nd, Element Rb]",Cubic,Fm-3m,10,K2 Rb1 Nd1 I6,6.0,1
mp-1111117,K2RbPdF6,-2.409654364199999,4,"[Element F, Element K, Element Pd, Element Rb]",Cubic,Fm-3m,10,K2 Rb1 Pd1 F6,6.0,1
mp-1110777,K2RbPrBr6,-2.046567233366666,4,"[Element Br, Element K, Element Pr, Element Rb]",Cubic,Fm-3m,10,K2 Rb1 Pr1 Br6,6.0,1
mp-1110755,K2RbPrCl6,-2.3619077303666662,4,"[Element Cl, Element K, Element Pr, Element Rb]",Cubic,Fm-3m,10,K2 Rb1 Pr1 Cl6,6.0,1
mp-1110672,K2RbPrF6,-3.397970370366666,4,"[Element F, Element K, Element Pr, Element Rb]",Cubic,Fm-3m,10,K2 Rb1 Pr1 F6,6.0,1
mp-1110776,K2RbPrI6,-1.586060660366666,4,"[Element I, Element K, Element Pr, Element Rb]",Cubic,Fm-3m,10,K2 Rb1 Pr1 I6,6.0,1
mp-1111432,K2RbRhF6,-2.559545177199999,4,"[Element F, Element K, Element Rb, Element Rh]",Cubic,Fm-3m,10,K2 Rb1 Rh1 F6,6.0,1
mp-1111431,K2RbRuF6,-2.541730785199999,4,"[Element F, Element K, Element Rb, Element Ru]",Cubic,Fm-3m,10,K2 Rb1 Ru1 F6,6.0,1
mp-1110754,K2RbSbBr6,-1.545023624199999,4,"[Element Br, Element K, Element Rb, Element Sb]",Cubic,Fm-3m,10,K2 Rb1 Sb1 Br6,6.0,1
mp-1110716,K2RbSbCl6,-1.814903238199999,4,"[Element Cl, Element K, Element Rb, Element Sb]",Cubic,Fm-3m,10,K2 Rb1 Sb1 Cl6,6.0,1
mp-1110671,K2RbSbF6,-2.793364536199999,4,"[Element F, Element K, Element Rb, Element Sb]",Cubic,Fm-3m,10,K2 Rb1 Sb1 F6,6.0,1
mp-1110775,K2RbSbI6,-1.149575068199999,4,"[Element I, Element K, Element Rb, Element Sb]",Cubic,Fm-3m,10,K2 Rb1 Sb1 I6,6.0,1
mp-1111597,K2RbScBr6,-2.004903161699999,4,"[Element Br, Element K, Element Rb, Element Sc]",Cubic,Fm-3m,10,K2 Rb1 Sc1 Br6,6.0,1
mp-1111207,K2RbScCl6,-2.3422498927,4,"[Element Cl, Element K, Element Rb, Element Sc]",Cubic,Fm-3m,10,K2 Rb1 Sc1 Cl6,6.0,1
mp-1111114,K2RbScF6,-3.487620787699999,4,"[Element F, Element K, Element Rb, Element Sc]",Cubic,Fm-3m,10,K2 Rb1 Sc1 F6,6.0,1
mp-1110753,K2RbTaBr6,-1.540148000933333,4,"[Element Br, Element K, Element Rb, Element Ta]",Cubic,Fm-3m,10,K2 Rb1 Ta1 Br6,6.0,1
mp-1110715,K2RbTaCl6,-1.8662588599333332,4,"[Element Cl, Element K, Element Rb, Element Ta]",Cubic,Fm-3m,10,K2 Rb1 Ta1 Cl6,6.0,1
mp-1110665,K2RbTaF6,-2.863375206933333,4,"[Element F, Element K, Element Rb, Element Ta]",Cubic,Fm-3m,10,K2 Rb1 Ta1 F6,6.0,1
mp-1110774,K2RbTaI6,-1.094002849933333,4,"[Element I, Element K, Element Rb, Element Ta]",Cubic,Fm-3m,10,K2 Rb1 Ta1 I6,6.0,1
mp-1111205,K2RbTbCl6,-2.395406265866666,4,"[Element Cl, Element K, Element Rb, Element Tb]",Cubic,Fm-3m,10,K2 Rb1 Tb1 Cl6,6.0,1
mp-1111427,K2RbTiF6,-3.227283342533334,4,"[Element F, Element K, Element Rb, Element Ti]",Cubic,Fm-3m,10,K2 Rb1 Ti1 F6,6.0,1
mp-1111203,K2RbTlBr6,-1.483526006533334,4,"[Element Br, Element K, Element Rb, Element Tl]",Cubic,Fm-3m,10,K2 Rb1 Tl1 Br6,6.0,1
mp-1111582,K2RbTlF6,-2.621871095533333,4,"[Element F, Element K, Element Rb, Element Tl]",Cubic,Fm-3m,10,K2 Rb1 Tl1 F6,6.0,1
mp-1111204,K2RbTmCl6,-2.4033324822,4,"[Element Cl, Element K, Element Rb, Element Tm]",Cubic,Fm-3m,10,K2 Rb1 Tm1 Cl6,6.0,1
mp-1111380,K2RbVF6,-3.0060214212,4,"[Element F, Element K, Element Rb, Element V]",Cubic,Fm-3m,10,K2 Rb1 V1 F6,6.0,1
mp-1110752,K2RbYBr6,-2.062595314199999,4,"[Element Br, Element K, Element Rb, Element Y]",Cubic,Fm-3m,10,K2 Rb1 Y1 Br6,6.0,1
mp-1110714,K2RbYCl6,-2.3916110282,4,"[Element Cl, Element K, Element Rb, Element Y]",Cubic,Fm-3m,10,K2 Rb1 Y1 Cl6,6.0,1
mp-1110670,K2RbYF6,-3.474911209199999,4,"[Element F, Element K, Element Rb, Element Y]",Cubic,Fm-3m,10,K2 Rb1 Y1 F6,6.0,1
mp-1110773,K2RbYI6,-1.5887433532,4,"[Element I, Element K, Element Rb, Element Y]",Cubic,Fm-3m,10,K2 Rb1 Y1 I6,6.0,1
mp-1112258,K2RhAuF6,-2.064346536449999,4,"[Element Au, Element F, Element K, Element Rh]",Cubic,Fm-3m,10,K2 Rh1 Au1 F6,6.0,1
mp-1112257,K2RuAuF6,-2.03377602945,4,"[Element Au, Element F, Element K, Element Ru]",Cubic,Fm-3m,10,K2 Ru1 Au1 F6,6.0,1
mp-1112418,K2SbAuBr6,-1.231971925449999,4,"[Element Au, Element Br, Element K, Element Sb]",Cubic,Fm-3m,10,K2 Sb1 Au1 Br6,6.0,1
mp-1112067,K2SbAuCl6,-1.459792964449999,4,"[Element Au, Element Cl, Element K, Element Sb]",Cubic,Fm-3m,10,K2 Sb1 Au1 Cl6,6.0,1
mp-1111960,K2SbAuF6,-2.307818189449999,4,"[Element Au, Element F, Element K, Element Sb]",Cubic,Fm-3m,10,K2 Sb1 Au1 F6,6.0,1
mp-1112064,K2SbAuI6,-0.894255460449999,4,"[Element Au, Element I, Element K, Element Sb]",Cubic,Fm-3m,10,K2 Sb1 Au1 I6,6.0,1
mp-1111998,K2ScAgBr6,-1.7599665481166662,4,"[Element Ag, Element Br, Element K, Element Sc]",Cubic,Fm-3m,10,K2 Sc1 Ag1 Br6,6.0,1
mp-1112448,K2ScAgCl6,-1.939350192416665,4,"[Element Ag, Element Cl, Element K, Element Sc]",Cubic,Fm-3m,10,K2 Sc1 Ag1 Cl6,6.0,1
mp-1112275,K2ScAgF6,-3.171970405116666,4,"[Element Ag, Element F, Element K, Element Sc]",Cubic,Fm-3m,10,K2 Sc1 Ag1 F6,6.0,1
mp-1112086,K2ScAgI6,-1.299872320116666,4,"[Element Ag, Element I, Element K, Element Sc]",Cubic,Fm-3m,10,K2 Sc1 Ag1 I6,6.0,1
mp-1111993,K2ScAuBr6,-1.642299711949999,4,"[Element Au, Element Br, Element K, Element Sc]",Cubic,Fm-3m,10,K2 Sc1 Au1 Br6,6.0,1
mp-1112065,K2ScAuCl6,-1.9481863519499991,4,"[Element Au, Element Cl, Element K, Element Sc]",Cubic,Fm-3m,10,K2 Sc1 Au1 Cl6,6.0,1
mp-1112256,K2ScAuF6,-2.982572055949999,4,"[Element Au, Element F, Element K, Element Sc]",Cubic,Fm-3m,10,K2 Sc1 Au1 F6,6.0,1