material_id,pretty_formula,formation_energy_per_atom,num_elements,elements,crystal_system,space_group_symbol,nsites,composition,num_halogens,num_unique_halogen_types
mp-1113297,Rb2EuCuCl6,-2.056438472000001,4,"[Element Cl, Element Cu, Element Eu, Element Rb]",Cubic,Fm-3m,10,Rb2 Eu1 Cu1 Cl6,6.0,1
mp-1110592,Rb2FeAuF6,-2.388655778499999,4,"[Element Au, Element F, Element Fe, Element Rb]",Cubic,Fm-3m,10,Rb2 Fe1 Au1 F6,6.0,1
mp-1113487,Rb2FeCuF6,-2.5381276245,4,"[Element Cu, Element F, Element Fe, Element Rb]",Cubic,Fm-3m,10,Rb2 Fe1 Cu1 F6,6.0,1
mp-1113778,Rb2FeHgF6,-2.50263420675,4,"[Element F, Element Fe, Element Hg, Element Rb]",Cubic,Fm-3m,10,Rb2 Fe1 Hg1 F6,6.0,1
mp-1111731,Rb2GaAgBr6,-1.397193637416666,4,"[Element Ag, Element Br, Element Ga, Element Rb]",Cubic,Fm-3m,10,Rb2 Ga1 Ag1 Br6,6.0,1
mp-1111468,Rb2GaAgCl6,-1.686171565416666,4,"[Element Ag, Element Cl, Element Ga, Element Rb]",Cubic,Fm-3m,10,Rb2 Ga1 Ag1 Cl6,6.0,1
mp-1110609,Rb2GaAgF6,-2.6974395524166663,4,"[Element Ag, Element F, Element Ga, Element Rb]",Cubic,Fm-3m,10,Rb2 Ga1 Ag1 F6,6.0,1
mp-1111802,Rb2GaAgI6,-0.9920756434166661,4,"[Element Ag, Element Ga, Element I, Element Rb]",Cubic,Fm-3m,10,Rb2 Ga1 Ag1 I6,6.0,1
mp-1111718,Rb2GaAuBr6,-1.30455065925,4,"[Element Au, Element Br, Element Ga, Element Rb]",Cubic,Fm-3m,10,Rb2 Ga1 Au1 Br6,6.0,1
mp-1111038,Rb2GaAuCl6,-1.56195247225,4,"[Element Au, Element Cl, Element Ga, Element Rb]",Cubic,Fm-3m,10,Rb2 Ga1 Au1 Cl6,6.0,1
mp-1110591,Rb2GaAuF6,-2.511523400249999,4,"[Element Au, Element F, Element Ga, Element Rb]",Cubic,Fm-3m,10,Rb2 Ga1 Au1 F6,6.0,1
mp-1111793,Rb2GaAuI6,-0.945515125249999,4,"[Element Au, Element Ga, Element I, Element Rb]",Cubic,Fm-3m,10,Rb2 Ga1 Au1 I6,6.0,1
mp-1111036,Rb2GaCuF6,-2.648850464249999,4,"[Element Cu, Element F, Element Ga, Element Rb]",Cubic,Fm-3m,10,Rb2 Ga1 Cu1 F6,6.0,1
mp-1113384,Rb2GaHgBr6,-1.3824971255,4,"[Element Br, Element Ga, Element Hg, Element Rb]",Cubic,Fm-3m,10,Rb2 Ga1 Hg1 Br6,6.0,1
mp-1113320,Rb2GaHgCl6,-1.6397138755,4,"[Element Cl, Element Ga, Element Hg, Element Rb]",Cubic,Fm-3m,10,Rb2 Ga1 Hg1 Cl6,6.0,1
mp-1113779,Rb2GaHgF6,-2.623641556500001,4,"[Element F, Element Ga, Element Hg, Element Rb]",Cubic,Fm-3m,10,Rb2 Ga1 Hg1 F6,6.0,1
mp-1113549,Rb2GaHgI6,-1.007771679500001,4,"[Element Ga, Element Hg, Element I, Element Rb]",Cubic,Fm-3m,10,Rb2 Ga1 Hg1 I6,6.0,1
mp-1111486,Rb2GdAgCl6,-2.172751832666666,4,"[Element Ag, Element Cl, Element Gd, Element Rb]",Cubic,Fm-3m,10,Rb2 Gd1 Ag1 Cl6,6.0,1
mp-1113564,Rb2HgAsBr6,-1.2640393065,4,"[Element As, Element Br, Element Hg, Element Rb]",Cubic,Fm-3m,10,Rb2 Hg1 As1 Br6,6.0,1
mp-1113319,Rb2HgAsCl6,-1.4856812145,4,"[Element As, Element Cl, Element Hg, Element Rb]",Cubic,Fm-3m,10,Rb2 Hg1 As1 Cl6,6.0,1
mp-1112408,Rb2HgAsF6,-2.381527555500001,4,"[Element As, Element F, Element Hg, Element Rb]",Cubic,Fm-3m,10,Rb2 Hg1 As1 F6,6.0,1
mp-1113545,Rb2HgAsI6,-0.9358977715000001,4,"[Element As, Element Hg, Element I, Element Rb]",Cubic,Fm-3m,10,Rb2 Hg1 As1 I6,6.0,1
mp-1113546,Rb2HgAuBr6,-1.18546055275,4,"[Element Au, Element Br, Element Hg, Element Rb]",Cubic,Fm-3m,10,Rb2 Hg1 Au1 Br6,6.0,1
mp-1113476,Rb2HgAuF6,-2.03702589475,4,"[Element Au, Element F, Element Hg, Element Rb]",Cubic,Fm-3m,10,Rb2 Hg1 Au1 F6,6.0,1
mp-1113547,Rb2HgBiBr6,-1.37638088675,4,"[Element Bi, Element Br, Element Hg, Element Rb]",Cubic,Fm-3m,10,Rb2 Hg1 Bi1 Br6,6.0,1
mp-1113548,Rb2HgBiCl6,-1.597890092750001,4,"[Element Bi, Element Cl, Element Hg, Element Rb]",Cubic,Fm-3m,10,Rb2 Hg1 Bi1 Cl6,6.0,1
mp-1112409,Rb2HgBiF6,-2.471428389750001,4,"[Element Bi, Element F, Element Hg, Element Rb]",Cubic,Fm-3m,10,Rb2 Hg1 Bi1 F6,6.0,1
mp-1111040,Rb2HgBiI6,-1.025602034750001,4,"[Element Bi, Element Hg, Element I, Element Rb]",Cubic,Fm-3m,10,Rb2 Hg1 Bi1 I6,6.0,1
mp-1111032,Rb2HgIrF6,-2.13537468375,4,"[Element F, Element Hg, Element Ir, Element Rb]",Cubic,Fm-3m,10,Rb2 Hg1 Ir1 F6,6.0,1
mp-1112226,Rb2HgMoF6,-2.48205116775,4,"[Element F, Element Hg, Element Mo, Element Rb]",Cubic,Fm-3m,10,Rb2 Hg1 Mo1 F6,6.0,1
mp-1113777,Rb2HgPdF6,-2.15113273575,4,"[Element F, Element Hg, Element Pd, Element Rb]",Cubic,Fm-3m,10,Rb2 Hg1 Pd1 F6,6.0,1
mp-1111016,Rb2HgRhF6,-2.19323471075,4,"[Element F, Element Hg, Element Rb, Element Rh]",Cubic,Fm-3m,10,Rb2 Hg1 Rh1 F6,6.0,1
mp-1113936,Rb2HgRuF6,-2.24933268075,4,"[Element F, Element Hg, Element Rb, Element Ru]",Cubic,Fm-3m,10,Rb2 Hg1 Ru1 F6,6.0,1
mp-1113552,Rb2HgSbBr6,-1.339613052749999,4,"[Element Br, Element Hg, Element Rb, Element Sb]",Cubic,Fm-3m,10,Rb2 Hg1 Sb1 Br6,6.0,1
mp-1113385,Rb2HgSbCl6,-1.56080660875,4,"[Element Cl, Element Hg, Element Rb, Element Sb]",Cubic,Fm-3m,10,Rb2 Hg1 Sb1 Cl6,6.0,1
mp-1111947,Rb2HgSbF6,-2.47591655875,4,"[Element F, Element Hg, Element Rb, Element Sb]",Cubic,Fm-3m,10,Rb2 Hg1 Sb1 F6,6.0,1
mp-1111041,Rb2HgSbI6,-0.992735469749999,4,"[Element Hg, Element I, Element Rb, Element Sb]",Cubic,Fm-3m,10,Rb2 Hg1 Sb1 I6,6.0,1
mp-1111729,Rb2InAgBr6,-1.437007130333333,4,"[Element Ag, Element Br, Element In, Element Rb]",Cubic,Fm-3m,10,Rb2 In1 Ag1 Br6,6.0,1
mp-1111634,Rb2InAgCl6,-1.710742968333332,4,"[Element Ag, Element Cl, Element In, Element Rb]",Cubic,Fm-3m,10,Rb2 In1 Ag1 Cl6,6.0,1
mp-1110608,Rb2InAgF6,-2.621729162333333,4,"[Element Ag, Element F, Element In, Element Rb]",Cubic,Fm-3m,10,Rb2 In1 Ag1 F6,6.0,1
mp-1111801,Rb2InAgI6,-1.0402692563333331,4,"[Element Ag, Element I, Element In, Element Rb]",Cubic,Fm-3m,10,Rb2 In1 Ag1 I6,6.0,1
mp-1110632,Rb2InAsBr6,-1.358401082916666,4,"[Element As, Element Br, Element In, Element Rb]",Cubic,Fm-3m,10,Rb2 In1 As1 Br6,6.0,1
mp-1114074,Rb2InAsCl6,-1.598376772916666,4,"[Element As, Element Cl, Element In, Element Rb]",Cubic,Fm-3m,10,Rb2 In1 As1 Cl6,6.0,1
mp-1113906,Rb2InAsF6,-2.531457232916666,4,"[Element As, Element F, Element In, Element Rb]",Cubic,Fm-3m,10,Rb2 In1 As1 F6,6.0,1
mp-1114134,Rb2InAsI6,-0.9898315269166661,4,"[Element As, Element I, Element In, Element Rb]",Cubic,Fm-3m,10,Rb2 In1 As1 I6,6.0,1
mp-1111717,Rb2InAuBr6,-1.3388286921666661,4,"[Element Au, Element Br, Element In, Element Rb]",Cubic,Fm-3m,10,Rb2 In1 Au1 Br6,6.0,1
mp-1110793,Rb2InAuCl6,-1.584695062166667,4,"[Element Au, Element Cl, Element In, Element Rb]",Cubic,Fm-3m,10,Rb2 In1 Au1 Cl6,6.0,1
mp-1110590,Rb2InAuF6,-2.436522168166667,4,"[Element Au, Element F, Element In, Element Rb]",Cubic,Fm-3m,10,Rb2 In1 Au1 F6,6.0,1
mp-1111791,Rb2InAuI6,-0.9807570131666661,4,"[Element Au, Element I, Element In, Element Rb]",Cubic,Fm-3m,10,Rb2 In1 Au1 I6,6.0,1
mp-1114071,Rb2InBiCl6,-1.718065487166666,4,"[Element Bi, Element Cl, Element In, Element Rb]",Cubic,Fm-3m,10,Rb2 In1 Bi1 Cl6,6.0,1
mp-1113933,Rb2InBiF6,-2.6494612701666673,4,"[Element Bi, Element F, Element In, Element Rb]",Cubic,Fm-3m,10,Rb2 In1 Bi1 F6,6.0,1
mp-1113404,Rb2InCuBr6,-1.398818896166666,4,"[Element Br, Element Cu, Element In, Element Rb]",Cubic,Fm-3m,10,Rb2 In1 Cu1 Br6,6.0,1
mp-1113598,Rb2InCuCl6,-1.677369040166667,4,"[Element Cl, Element Cu, Element In, Element Rb]",Cubic,Fm-3m,10,Rb2 In1 Cu1 Cl6,6.0,1
mp-1113807,Rb2InCuF6,-2.589391039166666,4,"[Element Cu, Element F, Element In, Element Rb]",Cubic,Fm-3m,10,Rb2 In1 Cu1 F6,6.0,1
mp-1114072,Rb2InGaBr6,-1.489182689916666,4,"[Element Br, Element Ga, Element In, Element Rb]",Cubic,Fm-3m,10,Rb2 In1 Ga1 Br6,6.0,1
mp-1114060,Rb2InGaCl6,-1.762980284916666,4,"[Element Cl, Element Ga, Element In, Element Rb]",Cubic,Fm-3m,10,Rb2 In1 Ga1 Cl6,6.0,1
mp-989566,Rb2InGaF6,-2.802686308916666,4,"[Element F, Element Ga, Element In, Element Rb]",Cubic,Fm-3m,10,Rb2 In1 Ga1 F6,6.0,1
mp-1114135,Rb2InGaI6,-1.084914683916666,4,"[Element Ga, Element I, Element In, Element Rb]",Cubic,Fm-3m,10,Rb2 In1 Ga1 I6,6.0,1
mp-1113550,Rb2InHgBr6,-1.412913932416667,4,"[Element Br, Element Hg, Element In, Element Rb]",Cubic,Fm-3m,10,Rb2 In1 Hg1 Br6,6.0,1
mp-1113321,Rb2InHgCl6,-1.6577197284166671,4,"[Element Cl, Element Hg, Element In, Element Rb]",Cubic,Fm-3m,10,Rb2 In1 Hg1 Cl6,6.0,1
mp-1112225,Rb2InHgF6,-2.5527608854166672,4,"[Element F, Element Hg, Element In, Element Rb]",Cubic,Fm-3m,10,Rb2 In1 Hg1 F6,6.0,1
mp-1113551,Rb2InHgI6,-1.044746931416667,4,"[Element Hg, Element I, Element In, Element Rb]",Cubic,Fm-3m,10,Rb2 In1 Hg1 I6,6.0,1
mp-1114131,Rb2InSbBr6,-1.421715585166666,4,"[Element Br, Element In, Element Rb, Element Sb]",Cubic,Fm-3m,10,Rb2 In1 Sb1 Br6,6.0,1
mp-1114061,Rb2InSbCl6,-1.6703260341666661,4,"[Element Cl, Element In, Element Rb, Element Sb]",Cubic,Fm-3m,10,Rb2 In1 Sb1 Cl6,6.0,1
mp-1113930,Rb2InSbF6,-2.615952154166666,4,"[Element F, Element In, Element Rb, Element Sb]",Cubic,Fm-3m,10,Rb2 In1 Sb1 F6,6.0,1
mp-1114191,Rb2InSbI6,-1.049154717166666,4,"[Element I, Element In, Element Rb, Element Sb]",Cubic,Fm-3m,10,Rb2 In1 Sb1 I6,6.0,1
mp-1110589,Rb2IrAuF6,-1.978898668499999,4,"[Element Au, Element F, Element Ir, Element Rb]",Cubic,Fm-3m,10,Rb2 Ir1 Au1 F6,6.0,1
mp-1111727,Rb2LaAgCl6,-2.187830372166666,4,"[Element Ag, Element Cl, Element La, Element Rb]",Cubic,Fm-3m,10,Rb2 La1 Ag1 Cl6,6.0,1
mp-1113498,Rb2LaAuCl6,-2.051405501,4,"[Element Au, Element Cl, Element La, Element Rb]",Cubic,Fm-3m,10,Rb2 La1 Au1 Cl6,6.0,1
mp-1113343,Rb2LaCuCl6,-2.150020003,4,"[Element Cl, Element Cu, Element La, Element Rb]",Cubic,Fm-3m,10,Rb2 La1 Cu1 Cl6,6.0,1
mp-1113747,Rb2LiAlF6,-3.423521409833333,4,"[Element Al, Element F, Element Li, Element Rb]",Cubic,Fm-3m,10,Rb2 Li1 Al1 F6,6.0,1
mp-1113748,Rb2LiAsF6,-2.808733546583333,4,"[Element As, Element F, Element Li, Element Rb]",Cubic,Fm-3m,10,Rb2 Li1 As1 F6,6.0,1
mp-1114414,Rb2LiAuCl6,-1.5543466068333331,4,"[Element Au, Element Cl, Element Li, Element Rb]",Cubic,Fm-3m,10,Rb2 Li1 Au1 Cl6,6.0,1
mp-1113735,Rb2LiAuF6,-2.358340762833333,4,"[Element Au, Element F, Element Li, Element Rb]",Cubic,Fm-3m,10,Rb2 Li1 Au1 F6,6.0,1
mp-1110713,Rb2LiBiBr6,-1.645216757833333,4,"[Element Bi, Element Br, Element Li, Element Rb]",Cubic,Fm-3m,10,Rb2 Li1 Bi1 Br6,6.0,1
mp-1110684,Rb2LiBiCl6,-1.9322716058333331,4,"[Element Bi, Element Cl, Element Li, Element Rb]",Cubic,Fm-3m,10,Rb2 Li1 Bi1 Cl6,6.0,1
mp-1110656,Rb2LiBiF6,-2.934599426833333,4,"[Element Bi, Element F, Element Li, Element Rb]",Cubic,Fm-3m,10,Rb2 Li1 Bi1 F6,6.0,1
mp-1110751,Rb2LiBiI6,-1.2271518188333341,4,"[Element Bi, Element I, Element Li, Element Rb]",Cubic,Fm-3m,10,Rb2 Li1 Bi1 I6,6.0,1
mp-1110712,Rb2LiCeBr6,-2.093155205833333,4,"[Element Br, Element Ce, Element Li, Element Rb]",Cubic,Fm-3m,10,Rb2 Li1 Ce1 Br6,6.0,1
mp-1110683,Rb2LiCeCl6,-2.424015683833333,4,"[Element Ce, Element Cl, Element Li, Element Rb]",Cubic,Fm-3m,10,Rb2 Li1 Ce1 Cl6,6.0,1
mp-1110655,Rb2LiCeF6,-3.516280681833333,4,"[Element Ce, Element F, Element Li, Element Rb]",Cubic,Fm-3m,10,Rb2 Li1 Ce1 F6,6.0,1
mp-1110750,Rb2LiCeI6,-1.613170874833333,4,"[Element Ce, Element I, Element Li, Element Rb]",Cubic,Fm-3m,10,Rb2 Li1 Ce1 I6,6.0,1
mp-1113736,Rb2LiCoF6,-2.7184617018333332,4,"[Element Co, Element F, Element Li, Element Rb]",Cubic,Fm-3m,10,Rb2 Li1 Co1 F6,6.0,1
mp-567628,Rb2LiDyBr6,-2.115091375999999,4,"[Element Br, Element Dy, Element Li, Element Rb]",Cubic,Fm-3m,10,Rb2 Li1 Dy1 Br6,6.0,1
mp-1113980,Rb2LiDyCl6,-2.462603035999999,4,"[Element Cl, Element Dy, Element Li, Element Rb]",Cubic,Fm-3m,10,Rb2 Li1 Dy1 Cl6,6.0,1
mp-1113981,Rb2LiErCl6,-2.466211088833333,4,"[Element Cl, Element Er, Element Li, Element Rb]",Cubic,Fm-3m,10,Rb2 Li1 Er1 Cl6,6.0,1
mp-1113978,Rb2LiEuCl6,-2.274363513333333,4,"[Element Cl, Element Eu, Element Li, Element Rb]",Cubic,Fm-3m,10,Rb2 Li1 Eu1 Cl6,6.0,1
mp-1113732,Rb2LiGaF6,-3.076162571583333,4,"[Element F, Element Ga, Element Li, Element Rb]",Cubic,Fm-3m,10,Rb2 Li1 Ga1 F6,6.0,1
mp-1113979,Rb2LiGdCl6,-2.456125571833333,4,"[Element Cl, Element Gd, Element Li, Element Rb]",Cubic,Fm-3m,10,Rb2 Li1 Gd1 Cl6,6.0,1
mp-1205883,Rb2LiHoCl6,-2.463324960333332,4,"[Element Cl, Element Ho, Element Li, Element Rb]",Cubic,Fm-3m,10,Rb2 Li1 Ho1 Cl6,6.0,1
mp-989583,Rb2LiInCl6,-1.980378803499999,4,"[Element Cl, Element In, Element Li, Element Rb]",Cubic,Fm-3m,10,Rb2 Li1 In1 Cl6,6.0,1
mp-1113733,Rb2LiInF6,-3.013948160499999,4,"[Element F, Element In, Element Li, Element Rb]",Cubic,Fm-3m,10,Rb2 Li1 In1 F6,6.0,1
mp-1113710,Rb2LiIrF6,-2.5597485698333333,4,"[Element F, Element Ir, Element Li, Element Rb]",Cubic,Fm-3m,10,Rb2 Li1 Ir1 F6,6.0,1
mp-1113975,Rb2LiLaCl6,-2.470843930333333,4,"[Element Cl, Element La, Element Li, Element Rb]",Cubic,Fm-3m,10,Rb2 Li1 La1 Cl6,6.0,1
mp-1113711,Rb2LiMnF6,-2.948795114626437,4,"[Element F, Element Li, Element Mn, Element Rb]",Cubic,Fm-3m,10,Rb2 Li1 Mn1 F6,6.0,1
mp-1110711,Rb2LiMoBr6,-1.542953530833333,4,"[Element Br, Element Li, Element Mo, Element Rb]",Cubic,Fm-3m,10,Rb2 Li1 Mo1 Br6,6.0,1
mp-1110668,Rb2LiMoCl6,-1.871898910833333,4,"[Element Cl, Element Li, Element Mo, Element Rb]",Cubic,Fm-3m,10,Rb2 Li1 Mo1 Cl6,6.0,1
mp-1110654,Rb2LiMoF6,-2.989268701833333,4,"[Element F, Element Li, Element Mo, Element Rb]",Cubic,Fm-3m,10,Rb2 Li1 Mo1 F6,6.0,1
mp-1110749,Rb2LiMoI6,-1.094949360833333,4,"[Element I, Element Li, Element Mo, Element Rb]",Cubic,Fm-3m,10,Rb2 Li1 Mo1 I6,6.0,1
mp-1110630,Rb2LiNbF6,-3.022893011833333,4,"[Element F, Element Li, Element Nb, Element Rb]",Cubic,Fm-3m,10,Rb2 Li1 Nb1 F6,6.0,1
mp-1110710,Rb2LiNdBr6,-2.104992439583333,4,"[Element Br, Element Li, Element Nd, Element Rb]",Cubic,Fm-3m,10,Rb2 Li1 Nd1 Br6,6.0,1
mp-1110682,Rb2LiNdCl6,-2.438023420583333,4,"[Element Cl, Element Li, Element Nd, Element Rb]",Cubic,Fm-3m,10,Rb2 Li1 Nd1 Cl6,6.0,1
mp-1110653,Rb2LiNdF6,-3.529860740583333,4,"[Element F, Element Li, Element Nd, Element Rb]",Cubic,Fm-3m,10,Rb2 Li1 Nd1 F6,6.0,1
mp-1110748,Rb2LiNdI6,-1.624093795583333,4,"[Element I, Element Li, Element Nd, Element Rb]",Cubic,Fm-3m,10,Rb2 Li1 Nd1 I6,6.0,1
mp-1113709,Rb2LiNiF6,-2.609514110833333,4,"[Element F, Element Li, Element Ni, Element Rb]",Cubic,Fm-3m,10,Rb2 Li1 Ni1 F6,6.0,1
mp-1113706,Rb2LiPdF6,-2.504378272833333,4,"[Element F, Element Li, Element Pd, Element Rb]",Cubic,Fm-3m,10,Rb2 Li1 Pd1 F6,6.0,1
mp-1110709,Rb2LiPrBr6,-2.100358805,4,"[Element Br, Element Li, Element Pr, Element Rb]",Cubic,Fm-3m,10,Rb2 Li1 Pr1 Br6,6.0,1
mp-1110681,Rb2LiPrCl6,-2.430654386999999,4,"[Element Cl, Element Li, Element Pr, Element Rb]",Cubic,Fm-3m,10,Rb2 Li1 Pr1 Cl6,6.0,1
mp-1110652,Rb2LiPrF6,-3.512924644999999,4,"[Element F, Element Li, Element Pr, Element Rb]",Cubic,Fm-3m,10,Rb2 Li1 Pr1 F6,6.0,1
mp-1110747,Rb2LiPrI6,-1.622273131999999,4,"[Element I, Element Li, Element Pr, Element Rb]",Cubic,Fm-3m,10,Rb2 Li1 Pr1 I6,6.0,1
mp-1113707,Rb2LiRhF6,-2.645169458833333,4,"[Element F, Element Li, Element Rb, Element Rh]",Cubic,Fm-3m,10,Rb2 Li1 Rh1 F6,6.0,1
mp-1113705,Rb2LiRuF6,-2.636409638833333,4,"[Element F, Element Li, Element Rb, Element Ru]",Cubic,Fm-3m,10,Rb2 Li1 Ru1 F6,6.0,1
mp-1110708,Rb2LiSbBr6,-1.593122193833333,4,"[Element Br, Element Li, Element Rb, Element Sb]",Cubic,Fm-3m,10,Rb2 Li1 Sb1 Br6,6.0,1
mp-1110680,Rb2LiSbCl6,-1.8781652158333322,4,"[Element Cl, Element Li, Element Rb, Element Sb]",Cubic,Fm-3m,10,Rb2 Li1 Sb1 Cl6,6.0,1
mp-1110651,Rb2LiSbF6,-2.898098412833333,4,"[Element F, Element Li, Element Rb, Element Sb]",Cubic,Fm-3m,10,Rb2 Li1 Sb1 F6,6.0,1
mp-1110746,Rb2LiSbI6,-1.181190730833333,4,"[Element I, Element Li, Element Rb, Element Sb]",Cubic,Fm-3m,10,Rb2 Li1 Sb1 I6,6.0,1
mp-1113928,Rb2LiScCl6,-2.400856649333332,4,"[Element Cl, Element Li, Element Rb, Element Sc]",Cubic,Fm-3m,10,Rb2 Li1 Sc1 Cl6,6.0,1
mp-1113703,Rb2LiScF6,-3.583158809333333,4,"[Element F, Element Li, Element Rb, Element Sc]",Cubic,Fm-3m,10,Rb2 Li1 Sc1 F6,6.0,1
mp-1113973,Rb2LiSmCl6,-2.4479876173333333,4,"[Element Cl, Element Li, Element Rb, Element Sm]",Cubic,Fm-3m,10,Rb2 Li1 Sm1 Cl6,6.0,1
mp-1110707,Rb2LiTaBr6,-1.5761496645666662,4,"[Element Br, Element Li, Element Rb, Element Ta]",Cubic,Fm-3m,10,Rb2 Li1 Ta1 Br6,6.0,1
mp-1110667,Rb2LiTaCl6,-1.917543199566666,4,"[Element Cl, Element Li, Element Rb, Element Ta]",Cubic,Fm-3m,10,Rb2 Li1 Ta1 Cl6,6.0,1
mp-1110650,Rb2LiTaF6,-2.956910274566666,4,"[Element F, Element Li, Element Rb, Element Ta]",Cubic,Fm-3m,10,Rb2 Li1 Ta1 F6,6.0,1
mp-1110745,Rb2LiTaI6,-1.112902064566666,4,"[Element I, Element Li, Element Rb, Element Ta]",Cubic,Fm-3m,10,Rb2 Li1 Ta1 I6,6.0,1
mp-1113974,Rb2LiTbCl6,-2.4614929005,4,"[Element Cl, Element Li, Element Rb, Element Tb]",Cubic,Fm-3m,10,Rb2 Li1 Tb1 Cl6,6.0,1
mp-1113704,Rb2LiTiF6,-3.317555614166666,4,"[Element F, Element Li, Element Rb, Element Ti]",Cubic,Fm-3m,10,Rb2 Li1 Ti1 F6,6.0,1
mp-1114027,Rb2LiTlBr6,-1.525932038166667,4,"[Element Br, Element Li, Element Rb, Element Tl]",Cubic,Fm-3m,10,Rb2 Li1 Tl1 Br6,6.0,1
mp-989579,Rb2LiTlCl6,-1.799548220166667,4,"[Element Cl, Element Li, Element Rb, Element Tl]",Cubic,Fm-3m,10,Rb2 Li1 Tl1 Cl6,6.0,1
mp-1113693,Rb2LiTlF6,-2.730992243166667,4,"[Element F, Element Li, Element Rb, Element Tl]",Cubic,Fm-3m,10,Rb2 Li1 Tl1 F6,6.0,1
mp-1113971,Rb2LiTmCl6,-2.466921009833334,4,"[Element Cl, Element Li, Element Rb, Element Tm]",Cubic,Fm-3m,10,Rb2 Li1 Tm1 Cl6,6.0,1
mp-1206403,Rb2LiVCl6,-2.021964439833334,4,"[Element Cl, Element Li, Element Rb, Element V]",Cubic,Fm-3m,10,Rb2 Li1 V1 Cl6,6.0,1
mp-1113694,Rb2LiVF6,-3.094341530833333,4,"[Element F, Element Li, Element Rb, Element V]",Cubic,Fm-3m,10,Rb2 Li1 V1 F6,6.0,1
mp-1110706,Rb2LiYBr6,-2.112229293833334,4,"[Element Br, Element Li, Element Rb, Element Y]",Cubic,Fm-3m,10,Rb2 Li1 Y1 Br6,6.0,1
mp-1110679,Rb2LiYCl6,-2.456822779833333,4,"[Element Cl, Element Li, Element Rb, Element Y]",Cubic,Fm-3m,10,Rb2 Li1 Y1 Cl6,6.0,1
mp-1110649,Rb2LiYF6,-3.583960213833333,4,"[Element F, Element Li, Element Rb, Element Y]",Cubic,Fm-3m,10,Rb2 Li1 Y1 F6,6.0,1
mp-1110744,Rb2LiYI6,-1.620097080833333,4,"[Element I, Element Li, Element Rb, Element Y]",Cubic,Fm-3m,10,Rb2 Li1 Y1 I6,6.0,1
mp-1205808,Rb2LiYbCl6,-2.352058086916666,4,"[Element Cl, Element Li, Element Rb, Element Yb]",Cubic,Fm-3m,10,Rb2 Li1 Yb1 Cl6,6.0,1
mp-1111632,Rb2LuAgCl6,-2.181767257333333,4,"[Element Ag, Element Cl, Element Lu, Element Rb]",Cubic,Fm-3m,10,Rb2 Lu1 Ag1 Cl6,6.0,1
mp-1113494,Rb2LuAuCl6,-2.042162392166666,4,"[Element Au, Element Cl, Element Lu, Element Rb]",Cubic,Fm-3m,10,Rb2 Lu1 Au1 Cl6,6.0,1
mp-1111035,Rb2LuCuCl6,-2.137519841166666,4,"[Element Cl, Element Cu, Element Lu, Element Rb]",Cubic,Fm-3m,10,Rb2 Lu1 Cu1 Cl6,6.0,1
mp-1110606,Rb2MnAgF6,-2.6029656234597702,4,"[Element Ag, Element F, Element Mn, Element Rb]",Cubic,Fm-3m,10,Rb2 Mn1 Ag1 F6,6.0,1
mp-1110588,Rb2MnAuF6,-2.443899928293103,4,"[Element Au, Element F, Element Mn, Element Rb]",Cubic,Fm-3m,10,Rb2 Mn1 Au1 F6,6.0,1
mp-1113808,Rb2MnCuF6,-2.6644300392931033,4,"[Element Cu, Element F, Element Mn, Element Rb]",Cubic,Fm-3m,10,Rb2 Mn1 Cu1 F6,6.0,1
mp-1113488,Rb2MnHgF6,-2.620198667543104,4,"[Element F, Element Hg, Element Mn, Element Rb]",Cubic,Fm-3m,10,Rb2 Mn1 Hg1 F6,6.0,1
mp-1113634,Rb2MnTlF6,-2.722546698626437,4,"[Element F, Element Mn, Element Rb, Element Tl]",Cubic,Fm-3m,10,Rb2 Mn1 Tl1 F6,6.0,1
mp-1110587,Rb2MoAuF6,-2.4014443765,4,"[Element Au, Element F, Element Mo, Element Rb]",Cubic,Fm-3m,10,Rb2 Mo1 Au1 F6,6.0,1
mp-1113929,Rb2NaAlCl6,-2.144124522637931,4,"[Element Al, Element Cl, Element Na, Element Rb]",Cubic,Fm-3m,10,Rb2 Na1 Al1 Cl6,6.0,1
mp-1079583,Rb2NaAlF6,-3.430538285637931,4,"[Element Al, Element F, Element Na, Element Rb]",Cubic,Fm-3m,10,Rb2 Na1 Al1 F6,6.0,1
mp-1114025,Rb2NaAsBr6,-1.513598301387931,4,"[Element As, Element Br, Element Na, Element Rb]",Cubic,Fm-3m,10,Rb2 Na1 As1 Br6,6.0,1
mp-1113967,Rb2NaAsCl6,-1.792129315387931,4,"[Element As, Element Cl, Element Na, Element Rb]",Cubic,Fm-3m,10,Rb2 Na1 As1 Cl6,6.0,1
mp-989523,Rb2NaAsF6,-2.798271798387934,4,"[Element As, Element F, Element Na, Element Rb]",Cubic,Fm-3m,10,Rb2 Na1 As1 F6,6.0,1
mp-1114026,Rb2NaAuBr6,-1.325539313637929,4,"[Element Au, Element Br, Element Na, Element Rb]",Cubic,Fm-3m,10,Rb2 Na1 Au1 Br6,6.0,1
mp-1114668,Rb2NaAuCl6,-1.54909807063793,4,"[Element Au, Element Cl, Element Na, Element Rb]",Cubic,Fm-3m,10,Rb2 Na1 Au1 Cl6,6.0,1
mp-1113688,Rb2NaAuF6,-2.341675199637931,4,"[Element Au, Element F, Element Na, Element Rb]",Cubic,Fm-3m,10,Rb2 Na1 Au1 F6,6.0,1
mp-1110743,Rb2NaBiBr6,-1.64683781763793,4,"[Element Bi, Element Br, Element Na, Element Rb]",Cubic,Fm-3m,10,Rb2 Na1 Bi1 Br6,6.0,1