material_id,pretty_formula,formation_energy_per_atom,num_elements,elements,crystal_system,space_group_symbol,nsites,composition,num_halogens,num_unique_halogen_types
mp-1111940,K2GaCuF6,-2.6579901302,4,"[Element Cu, Element F, Element Ga, Element K]",Cubic,Fm-3m,10,K2 Ga1 Cu1 F6,6.0,1
mp-1112204,K2GaHgBr6,-1.34246623145,4,"[Element Br, Element Ga, Element Hg, Element K]",Cubic,Fm-3m,10,K2 Ga1 Hg1 Br6,6.0,1
mp-1111981,K2GaHgCl6,-1.602908983449999,4,"[Element Cl, Element Ga, Element Hg, Element K]",Cubic,Fm-3m,10,K2 Ga1 Hg1 Cl6,6.0,1
mp-1112234,K2GaHgF6,-2.602335223450001,4,"[Element F, Element Ga, Element Hg, Element K]",Cubic,Fm-3m,10,K2 Ga1 Hg1 F6,6.0,1
mp-1112206,K2GaHgI6,-0.9638751134500001,4,"[Element Ga, Element Hg, Element I, Element K]",Cubic,Fm-3m,10,K2 Ga1 Hg1 I6,6.0,1
mp-1112068,K2GdAuCl6,-1.9933991514499991,4,"[Element Au, Element Cl, Element Gd, Element K]",Cubic,Fm-3m,10,K2 Gd1 Au1 Cl6,6.0,1
mp-1112163,K2GdCuCl6,-1.9584199982499961,4,"[Element Cl, Element Cu, Element Gd, Element K]",Cubic,Fm-3m,10,K2 Gd1 Cu1 Cl6,6.0,1
mp-1112208,K2HgAsBr6,-1.22162653745,4,"[Element As, Element Br, Element Hg, Element K]",Cubic,Fm-3m,10,K2 Hg1 As1 Br6,6.0,1
mp-1112212,K2HgAsCl6,-1.4446659884500002,4,"[Element As, Element Cl, Element Hg, Element K]",Cubic,Fm-3m,10,K2 Hg1 As1 Cl6,6.0,1
mp-1112207,K2HgAsF6,-2.34698811145,4,"[Element As, Element F, Element Hg, Element K]",Cubic,Fm-3m,10,K2 Hg1 As1 F6,6.0,1
mp-1112032,K2HgAsI6,-0.8913045464500001,4,"[Element As, Element Hg, Element I, Element K]",Cubic,Fm-3m,10,K2 Hg1 As1 I6,6.0,1
mp-1111992,K2HgAuBr6,-1.145626102700001,4,"[Element Au, Element Br, Element Hg, Element K]",Cubic,Fm-3m,10,K2 Hg1 Au1 Br6,6.0,1
mp-1111937,K2HgAuF6,-2.0086055517,4,"[Element Au, Element F, Element Hg, Element K]",Cubic,Fm-3m,10,K2 Hg1 Au1 F6,6.0,1
mp-1112205,K2HgBiBr6,-1.328226082700001,4,"[Element Bi, Element Br, Element Hg, Element K]",Cubic,Fm-3m,10,K2 Hg1 Bi1 Br6,6.0,1
mp-1112033,K2HgBiCl6,-1.39638252874999,4,"[Element Bi, Element Cl, Element Hg, Element K]",Cubic,Fm-3m,10,K2 Hg1 Bi1 Cl6,6.0,1
mp-1112367,K2HgBiF6,-2.4322121227,4,"[Element Bi, Element F, Element Hg, Element K]",Cubic,Fm-3m,10,K2 Hg1 Bi1 F6,6.0,1
mp-1112030,K2HgBiI6,-0.9760983737000011,4,"[Element Bi, Element Hg, Element I, Element K]",Cubic,Fm-3m,10,K2 Hg1 Bi1 I6,6.0,1
mp-1111958,K2HgIrF6,-2.0919365897,4,"[Element F, Element Hg, Element Ir, Element K]",Cubic,Fm-3m,10,K2 Hg1 Ir1 F6,6.0,1
mp-1112152,K2HgMoF6,-2.4351286777,4,"[Element F, Element Hg, Element K, Element Mo]",Cubic,Fm-3m,10,K2 Hg1 Mo1 F6,6.0,1
mp-1111936,K2HgPdF6,-2.1286028987,4,"[Element F, Element Hg, Element K, Element Pd]",Cubic,Fm-3m,10,K2 Hg1 Pd1 F6,6.0,1
mp-1112198,K2HgRhF6,-2.1701543707,4,"[Element F, Element Hg, Element K, Element Rh]",Cubic,Fm-3m,10,K2 Hg1 Rh1 F6,6.0,1
mp-1112028,K2HgSbBr6,-1.2853442597,4,"[Element Br, Element Hg, Element K, Element Sb]",Cubic,Fm-3m,10,K2 Hg1 Sb1 Br6,6.0,1
mp-1112196,K2HgSbCl6,-1.288784330500004,4,"[Element Cl, Element Hg, Element K, Element Sb]",Cubic,Fm-3m,10,K2 Hg1 Sb1 Cl6,6.0,1
mp-1112195,K2HgSbF6,-2.4350872687000003,4,"[Element F, Element Hg, Element K, Element Sb]",Cubic,Fm-3m,10,K2 Hg1 Sb1 F6,6.0,1
mp-1112197,K2HgSbI6,-0.9444485537,4,"[Element Hg, Element I, Element K, Element Sb]",Cubic,Fm-3m,10,K2 Hg1 Sb1 I6,6.0,1
mp-1112464,K2InAgBr6,-1.3966069672833321,4,"[Element Ag, Element Br, Element In, Element K]",Cubic,Fm-3m,10,K2 In1 Ag1 Br6,6.0,1
mp-1110874,K2InAgCl6,-1.674026557283333,4,"[Element Ag, Element Cl, Element In, Element K]",Cubic,Fm-3m,10,K2 In1 Ag1 Cl6,6.0,1
mp-1112283,K2InAgF6,-2.595298415283332,4,"[Element Ag, Element F, Element In, Element K]",Cubic,Fm-3m,10,K2 In1 Ag1 F6,6.0,1
mp-1112095,K2InAgI6,-0.9957382852833331,4,"[Element Ag, Element I, Element In, Element K]",Cubic,Fm-3m,10,K2 In1 Ag1 I6,6.0,1
mp-1110640,K2InAsBr6,-1.313457371866666,4,"[Element As, Element Br, Element In, Element K]",Cubic,Fm-3m,10,K2 In1 As1 Br6,6.0,1
mp-1112187,K2InAsCl6,-1.554528238866666,4,"[Element As, Element Cl, Element In, Element K]",Cubic,Fm-3m,10,K2 In1 As1 Cl6,6.0,1
mp-1112186,K2InAsF6,-2.500278300866667,4,"[Element As, Element F, Element In, Element K]",Cubic,Fm-3m,10,K2 In1 As1 F6,6.0,1
mp-1112020,K2InAsI6,-0.9430563608666661,4,"[Element As, Element I, Element In, Element K]",Cubic,Fm-3m,10,K2 In1 As1 I6,6.0,1
mp-1112069,K2InAuBr6,-1.298367553116666,4,"[Element Au, Element Br, Element In, Element K]",Cubic,Fm-3m,10,K2 In1 Au1 Br6,6.0,1
mp-1111983,K2InAuCl6,-1.5476649791166661,4,"[Element Au, Element Cl, Element In, Element K]",Cubic,Fm-3m,10,K2 In1 Au1 Cl6,6.0,1
mp-1111944,K2InAuF6,-2.4069415771166662,4,"[Element Au, Element F, Element In, Element K]",Cubic,Fm-3m,10,K2 In1 Au1 F6,6.0,1
mp-1112439,K2InAuI6,-0.9368278671166661,4,"[Element Au, Element I, Element In, Element K]",Cubic,Fm-3m,10,K2 In1 Au1 I6,6.0,1
mp-1112359,K2InBiF6,-2.609944202116666,4,"[Element Bi, Element F, Element In, Element K]",Cubic,Fm-3m,10,K2 In1 Bi1 F6,6.0,1
mp-1112160,K2InCuBr6,-1.364505551116666,4,"[Element Br, Element Cu, Element In, Element K]",Cubic,Fm-3m,10,K2 In1 Cu1 Br6,6.0,1
mp-1112383,K2InCuCl6,-1.649744988116666,4,"[Element Cl, Element Cu, Element In, Element K]",Cubic,Fm-3m,10,K2 In1 Cu1 Cl6,6.0,1
mp-1113025,K2InCuF6,-0.39394701211666605,4,"[Element Cu, Element F, Element In, Element K]",Cubic,Fm-3m,10,K2 In1 Cu1 F6,6.0,1
mp-1112184,K2InGaBr6,-1.4450524068666661,4,"[Element Br, Element Ga, Element In, Element K]",Cubic,Fm-3m,10,K2 In1 Ga1 Br6,6.0,1
mp-1111982,K2InGaCl6,-1.720957321866666,4,"[Element Cl, Element Ga, Element In, Element K]",Cubic,Fm-3m,10,K2 In1 Ga1 Cl6,6.0,1
mp-1112221,K2InGaF6,-2.701918501866667,4,"[Element F, Element Ga, Element In, Element K]",Cubic,Fm-3m,10,K2 In1 Ga1 F6,6.0,1
mp-1112021,K2InGaI6,-1.038374893866666,4,"[Element Ga, Element I, Element In, Element K]",Cubic,Fm-3m,10,K2 In1 Ga1 I6,6.0,1
mp-1112203,K2InHgBr6,-1.368445925366667,4,"[Element Br, Element Hg, Element In, Element K]",Cubic,Fm-3m,10,K2 In1 Hg1 Br6,6.0,1
mp-1112200,K2InHgCl6,-1.6154017793666662,4,"[Element Cl, Element Hg, Element In, Element K]",Cubic,Fm-3m,10,K2 In1 Hg1 Cl6,6.0,1
mp-1112199,K2InHgF6,-2.522760323366667,4,"[Element F, Element Hg, Element In, Element K]",Cubic,Fm-3m,10,K2 In1 Hg1 F6,6.0,1
mp-1112031,K2InHgI6,-0.9976693243666671,4,"[Element Hg, Element I, Element In, Element K]",Cubic,Fm-3m,10,K2 In1 Hg1 I6,6.0,1
mp-1112183,K2InSbBr6,-1.372101847116666,4,"[Element Br, Element In, Element K, Element Sb]",Cubic,Fm-3m,10,K2 In1 Sb1 Br6,6.0,1
mp-1112017,K2InSbCl6,-1.621845669116666,4,"[Element Cl, Element In, Element K, Element Sb]",Cubic,Fm-3m,10,K2 In1 Sb1 Cl6,6.0,1
mp-1112181,K2InSbF6,-2.579122219116666,4,"[Element F, Element In, Element K, Element Sb]",Cubic,Fm-3m,10,K2 In1 Sb1 F6,6.0,1
mp-1112018,K2InSbI6,-0.9985146301166661,4,"[Element I, Element In, Element K, Element Sb]",Cubic,Fm-3m,10,K2 In1 Sb1 I6,6.0,1
mp-1112262,K2IrAuF6,-1.954425388449999,4,"[Element Au, Element F, Element Ir, Element K]",Cubic,Fm-3m,10,K2 Ir1 Au1 F6,6.0,1
mp-1112481,K2LaAgCl6,-2.014556409750002,4,"[Element Ag, Element Cl, Element K, Element La]",Cubic,Fm-3m,10,K2 La1 Ag1 Cl6,6.0,1
mp-1112425,K2LaAuCl6,-2.00618061795,4,"[Element Au, Element Cl, Element K, Element La]",Cubic,Fm-3m,10,K2 La1 Au1 Cl6,6.0,1
mp-1112230,K2LaCuCl6,-1.9788363322500002,4,"[Element Cl, Element Cu, Element K, Element La]",Cubic,Fm-3m,10,K2 La1 Cu1 Cl6,6.0,1
mp-9839,K2LiAlF6,-3.462772290783333,4,"[Element Al, Element F, Element K, Element Li]",Cubic,Fm-3m,10,K2 Li1 Al1 F6,6.0,1
mp-1111928,K2LiAsF6,-2.819868697533333,4,"[Element As, Element F, Element K, Element Li]",Cubic,Fm-3m,10,K2 Li1 As1 F6,6.0,1
mp-1111678,K2LiAuCl6,-1.527542103783333,4,"[Element Au, Element Cl, Element K, Element Li]",Cubic,Fm-3m,10,K2 Li1 Au1 Cl6,6.0,1
mp-1111111,K2LiAuF6,-2.360179859783333,4,"[Element Au, Element F, Element K, Element Li]",Cubic,Fm-3m,10,K2 Li1 Au1 F6,6.0,1
mp-1110902,K2LiBiBr6,-1.603332617783333,4,"[Element Bi, Element Br, Element K, Element Li]",Cubic,Fm-3m,10,K2 Li1 Bi1 Br6,6.0,1
mp-1110869,K2LiBiCl6,-1.894873532783334,4,"[Element Bi, Element Cl, Element K, Element Li]",Cubic,Fm-3m,10,K2 Li1 Bi1 Cl6,6.0,1
mp-1110838,K2LiBiF6,-2.924433109783333,4,"[Element Bi, Element F, Element K, Element Li]",Cubic,Fm-3m,10,K2 Li1 Bi1 F6,6.0,1
mp-1110941,K2LiBiI6,-1.180705902783333,4,"[Element Bi, Element I, Element K, Element Li]",Cubic,Fm-3m,10,K2 Li1 Bi1 I6,6.0,1
mp-1111138,K2LiCeBr6,-2.050862146783333,4,"[Element Br, Element Ce, Element K, Element Li]",Cubic,Fm-3m,10,K2 Li1 Ce1 Br6,6.0,1
mp-1111675,K2LiCeCl6,-2.294491287166666,4,"[Element Ce, Element Cl, Element K, Element Li]",Cubic,Fm-3m,10,K2 Li1 Ce1 Cl6,6.0,1
mp-1112201,K2LiCeF6,-3.4934336157833332,4,"[Element Ce, Element F, Element K, Element Li]",Cubic,Fm-3m,10,K2 Li1 Ce1 F6,6.0,1
mp-1111674,K2LiCeI6,-1.566043788783333,4,"[Element Ce, Element I, Element K, Element Li]",Cubic,Fm-3m,10,K2 Li1 Ce1 I6,6.0,1
mp-1111150,K2LiCoF6,-2.7391939207833342,4,"[Element Co, Element F, Element K, Element Li]",Cubic,Fm-3m,10,K2 Li1 Co1 F6,6.0,1
mp-1111927,K2LiCrF6,-3.143772144783333,4,"[Element Cr, Element F, Element K, Element Li]",Cubic,Fm-3m,10,K2 Li1 Cr1 F6,6.0,1
mp-1207213,K2LiCuF6,-2.604690493783333,4,"[Element Cu, Element F, Element K, Element Li]",Cubic,Fm-3m,10,K2 Li1 Cu1 F6,6.0,1
mp-1111259,K2LiDyCl6,-2.315434673166665,4,"[Element Cl, Element Dy, Element K, Element Li]",Cubic,Fm-3m,10,K2 Li1 Dy1 Cl6,6.0,1
mp-1111256,K2LiErCl6,-2.30397318025,4,"[Element Cl, Element Er, Element K, Element Li]",Cubic,Fm-3m,10,K2 Li1 Er1 Cl6,6.0,1
mp-1111273,K2LiEuCl6,-2.238325599283334,4,"[Element Cl, Element Eu, Element K, Element Li]",Cubic,Fm-3m,10,K2 Li1 Eu1 Cl6,6.0,1
mp-1112185,K2LiFeF6,-2.975417636783333,4,"[Element F, Element Fe, Element K, Element Li]",Cubic,Fm-3m,10,K2 Li1 Fe1 F6,6.0,1
mp-1111112,K2LiGaF6,-3.104614807533333,4,"[Element F, Element Ga, Element K, Element Li]",Cubic,Fm-3m,10,K2 Li1 Ga1 F6,6.0,1
mp-1111673,K2LiGdCl6,-2.293317335666667,4,"[Element Cl, Element Gd, Element K, Element Li]",Cubic,Fm-3m,10,K2 Li1 Gd1 Cl6,6.0,1
mp-1111672,K2LiInCl6,-1.9508593674499992,4,"[Element Cl, Element In, Element K, Element Li]",Cubic,Fm-3m,10,K2 Li1 In1 Cl6,6.0,1
mp-1111671,K2LiInF6,-3.02043609045,4,"[Element F, Element In, Element K, Element Li]",Cubic,Fm-3m,10,K2 Li1 In1 F6,6.0,1
mp-1111926,K2LiIrF6,-2.574690587783333,4,"[Element F, Element Ir, Element K, Element Li]",Cubic,Fm-3m,10,K2 Li1 Ir1 F6,6.0,1
mp-1111257,K2LiLaCl6,-2.313241128666663,4,"[Element Cl, Element K, Element La, Element Li]",Cubic,Fm-3m,10,K2 Li1 La1 Cl6,6.0,1
mp-1111126,K2LiLuCl6,-2.43546777145,4,"[Element Cl, Element K, Element Li, Element Lu]",Cubic,Fm-3m,10,K2 Li1 Lu1 Cl6,6.0,1
mp-1111670,K2LiMnF6,-2.972153750576436,4,"[Element F, Element K, Element Li, Element Mn]",Cubic,Fm-3m,10,K2 Li1 Mn1 F6,6.0,1
mp-1110868,K2LiMoBr6,-1.510278412783333,4,"[Element Br, Element K, Element Li, Element Mo]",Cubic,Fm-3m,10,K2 Li1 Mo1 Br6,6.0,1
mp-1110855,K2LiMoCl6,-1.707390344916679,4,"[Element Cl, Element K, Element Li, Element Mo]",Cubic,Fm-3m,10,K2 Li1 Mo1 Cl6,6.0,1
mp-1110837,K2LiMoF6,-2.996193935783333,4,"[Element F, Element K, Element Li, Element Mo]",Cubic,Fm-3m,10,K2 Li1 Mo1 F6,6.0,1
mp-1110940,K2LiMoI6,-1.055070038783333,4,"[Element I, Element K, Element Li, Element Mo]",Cubic,Fm-3m,10,K2 Li1 Mo1 I6,6.0,1
mp-1111109,K2LiNbF6,-3.028621898783333,4,"[Element F, Element K, Element Li, Element Nb]",Cubic,Fm-3m,10,K2 Li1 Nb1 F6,6.0,1
mp-1110901,K2LiNdBr6,-2.062937820533333,4,"[Element Br, Element K, Element Li, Element Nd]",Cubic,Fm-3m,10,K2 Li1 Nd1 Br6,6.0,1
mp-1110867,K2LiNdCl6,-2.284230588666671,4,"[Element Cl, Element K, Element Li, Element Nd]",Cubic,Fm-3m,10,K2 Li1 Nd1 Cl6,6.0,1
mp-1110836,K2LiNdF6,-3.517252639533333,4,"[Element F, Element K, Element Li, Element Nd]",Cubic,Fm-3m,10,K2 Li1 Nd1 F6,6.0,1
mp-1110939,K2LiNdI6,-1.5770852525333332,4,"[Element I, Element K, Element Li, Element Nd]",Cubic,Fm-3m,10,K2 Li1 Nd1 I6,6.0,1
mp-1111147,K2LiNiF6,-2.641061973783333,4,"[Element F, Element K, Element Li, Element Ni]",Cubic,Fm-3m,10,K2 Li1 Ni1 F6,6.0,1
mp-1111924,K2LiPdF6,-2.520458614783332,4,"[Element F, Element K, Element Li, Element Pd]",Cubic,Fm-3m,10,K2 Li1 Pd1 F6,6.0,1
mp-1110900,K2LiPrBr6,-2.057740443949999,4,"[Element Br, Element K, Element Li, Element Pr]",Cubic,Fm-3m,10,K2 Li1 Pr1 Br6,6.0,1
mp-1110866,K2LiPrCl6,-2.275048830333337,4,"[Element Cl, Element K, Element Li, Element Pr]",Cubic,Fm-3m,10,K2 Li1 Pr1 Cl6,6.0,1
mp-1110938,K2LiPrI6,-1.57489150895,4,"[Element I, Element K, Element Li, Element Pr]",Cubic,Fm-3m,10,K2 Li1 Pr1 I6,6.0,1
mp-1111665,K2LiRhF6,-2.6630542147833323,4,"[Element F, Element K, Element Li, Element Rh]",Cubic,Fm-3m,10,K2 Li1 Rh1 F6,6.0,1
mp-1111923,K2LiRuF6,-2.653052497783333,4,"[Element F, Element K, Element Li, Element Ru]",Cubic,Fm-3m,10,K2 Li1 Ru1 F6,6.0,1
mp-1110899,K2LiSbBr6,-1.5529713907833331,4,"[Element Br, Element K, Element Li, Element Sb]",Cubic,Fm-3m,10,K2 Li1 Sb1 Br6,6.0,1
mp-1110865,K2LiSbCl6,-1.640452489666665,4,"[Element Cl, Element K, Element Li, Element Sb]",Cubic,Fm-3m,10,K2 Li1 Sb1 Cl6,6.0,1
mp-1110835,K2LiSbF6,-2.895017128783332,4,"[Element F, Element K, Element Li, Element Sb]",Cubic,Fm-3m,10,K2 Li1 Sb1 F6,6.0,1
mp-1110937,K2LiSbI6,-1.136113409783333,4,"[Element I, Element K, Element Li, Element Sb]",Cubic,Fm-3m,10,K2 Li1 Sb1 I6,6.0,1
mp-1111932,K2LiScCl6,-2.23790182833333,4,"[Element Cl, Element K, Element Li, Element Sc]",Cubic,Fm-3m,10,K2 Li1 Sc1 Cl6,6.0,1
mp-1111110,K2LiScF6,-3.597623383283333,4,"[Element F, Element K, Element Li, Element Sc]",Cubic,Fm-3m,10,K2 Li1 Sc1 F6,6.0,1
mp-1111244,K2LiSmCl6,-2.295523696166666,4,"[Element Cl, Element K, Element Li, Element Sm]",Cubic,Fm-3m,10,K2 Li1 Sm1 Cl6,6.0,1
mp-1111922,K2LiTaBr6,-1.5431426055166662,4,"[Element Br, Element K, Element Li, Element Ta]",Cubic,Fm-3m,10,K2 Li1 Ta1 Br6,6.0,1
mp-1112861,K2LiTaCl6,-1.8916136755166661,4,"[Element Cl, Element K, Element Li, Element Ta]",Cubic,Fm-3m,10,K2 Li1 Ta1 Cl6,6.0,1
mp-1111245,K2LiTaI6,-1.072933570516667,4,"[Element I, Element K, Element Li, Element Ta]",Cubic,Fm-3m,10,K2 Li1 Ta1 I6,6.0,1
mp-1110864,K2LiTbCl6,-2.312443396666667,4,"[Element Cl, Element K, Element Li, Element Tb]",Cubic,Fm-3m,10,K2 Li1 Tb1 Cl6,6.0,1
mp-1111107,K2LiTiF6,-3.337603426116666,4,"[Element F, Element K, Element Li, Element Ti]",Cubic,Fm-3m,10,K2 Li1 Ti1 F6,6.0,1
mp-1111242,K2LiTlBr6,-1.4867765491166671,4,"[Element Br, Element K, Element Li, Element Tl]",Cubic,Fm-3m,10,K2 Li1 Tl1 Br6,6.0,1
mp-1111660,K2LiTlCl6,-1.7663663211166671,4,"[Element Cl, Element K, Element Li, Element Tl]",Cubic,Fm-3m,10,K2 Li1 Tl1 Cl6,6.0,1
mp-1111658,K2LiTlF6,-2.727947001116667,4,"[Element F, Element K, Element Li, Element Tl]",Cubic,Fm-3m,10,K2 Li1 Tl1 F6,6.0,1
mp-1111657,K2LiTmCl6,-2.309047029316664,4,"[Element Cl, Element K, Element Li, Element Tm]",Cubic,Fm-3m,10,K2 Li1 Tm1 Cl6,6.0,1
mp-1111921,K2LiVF6,-3.118392679783333,4,"[Element F, Element K, Element Li, Element V]",Cubic,Fm-3m,10,K2 Li1 V1 F6,6.0,1
mp-1110898,K2LiYBr6,-2.072980750783332,4,"[Element Br, Element K, Element Li, Element Y]",Cubic,Fm-3m,10,K2 Li1 Y1 Br6,6.0,1
mp-1110863,K2LiYCl6,-2.313966253916665,4,"[Element Cl, Element K, Element Li, Element Y]",Cubic,Fm-3m,10,K2 Li1 Y1 Cl6,6.0,1
mp-1110834,K2LiYF6,-3.5806418267833333,4,"[Element F, Element K, Element Li, Element Y]",Cubic,Fm-3m,10,K2 Li1 Y1 F6,6.0,1
mp-1110936,K2LiYI6,-1.575087840783333,4,"[Element I, Element K, Element Li, Element Y]",Cubic,Fm-3m,10,K2 Li1 Y1 I6,6.0,1
mp-1111986,K2LuAgCl6,-2.142704011283332,4,"[Element Ag, Element Cl, Element K, Element Lu]",Cubic,Fm-3m,10,K2 Lu1 Ag1 Cl6,6.0,1
mp-1112066,K2LuAuCl6,-2.002456453116666,4,"[Element Au, Element Cl, Element K, Element Lu]",Cubic,Fm-3m,10,K2 Lu1 Au1 Cl6,6.0,1
mp-1112229,K2LuCuCl6,-1.951118381316666,4,"[Element Cl, Element Cu, Element K, Element Lu]",Cubic,Fm-3m,10,K2 Lu1 Cu1 Cl6,6.0,1
mp-1112281,K2MnAgF6,-2.5918495084097692,4,"[Element Ag, Element F, Element K, Element Mn]",Cubic,Fm-3m,10,K2 Mn1 Ag1 F6,6.0,1
mp-1112261,K2MnAuF6,-2.430091991243102,4,"[Element Au, Element F, Element K, Element Mn]",Cubic,Fm-3m,10,K2 Mn1 Au1 F6,6.0,1
mp-1111955,K2MnHgF6,-2.603029092493103,4,"[Element F, Element Hg, Element K, Element Mn]",Cubic,Fm-3m,10,K2 Mn1 Hg1 F6,6.0,1
mp-1111371,K2MnTlF6,-2.695543939576437,4,"[Element F, Element K, Element Mn, Element Tl]",Cubic,Fm-3m,10,K2 Mn1 Tl1 F6,6.0,1
mp-1112260,K2MoAuF6,-2.3708560474500002,4,"[Element Au, Element F, Element K, Element Mo]",Cubic,Fm-3m,10,K2 Mo1 Au1 F6,6.0,1
mp-1111652,K2NaAlCl6,-2.115560732587931,4,"[Element Al, Element Cl, Element K, Element Na]",Cubic,Fm-3m,10,K2 Na1 Al1 Cl6,6.0,1
mp-6586,K2NaAlF6,-3.44334859958793,4,"[Element Al, Element F, Element K, Element Na]",Cubic,Fm-3m,10,K2 Na1 Al1 F6,6.0,1
mp-1111240,K2NaAsBr6,-1.47256193633793,4,"[Element As, Element Br, Element K, Element Na]",Cubic,Fm-3m,10,K2 Na1 As1 Br6,6.0,1
mp-1111651,K2NaAsCl6,-1.75565446233793,4,"[Element As, Element Cl, Element K, Element Na]",Cubic,Fm-3m,10,K2 Na1 As1 Cl6,6.0,1
mp-1111108,K2NaAsF6,-2.787983251337931,4,"[Element As, Element F, Element K, Element Na]",Cubic,Fm-3m,10,K2 Na1 As1 F6,6.0,1
mp-1111241,K2NaAuBr6,-1.28577041058793,4,"[Element Au, Element Br, Element K, Element Na]",Cubic,Fm-3m,10,K2 Na1 Au1 Br6,6.0,1
mp-1111131,K2NaAuCl6,-1.5130824055879302,4,"[Element Au, Element Cl, Element K, Element Na]",Cubic,Fm-3m,10,K2 Na1 Au1 Cl6,6.0,1
mp-1111920,K2NaAuF6,-2.32410380858793,4,"[Element Au, Element F, Element K, Element Na]",Cubic,Fm-3m,10,K2 Na1 Au1 F6,6.0,1
mp-1110897,K2NaBiBr6,-1.599942692587931,4,"[Element Bi, Element Br, Element K, Element Na]",Cubic,Fm-3m,10,K2 Na1 Bi1 Br6,6.0,1
mp-1110896,K2NaBiCl6,-1.886025230587931,4,"[Element Bi, Element Cl, Element K, Element Na]",Cubic,Fm-3m,10,K2 Na1 Bi1 Cl6,6.0,1
mp-1110833,K2NaBiF6,-2.891291591587931,4,"[Element Bi, Element F, Element K, Element Na]",Cubic,Fm-3m,10,K2 Na1 Bi1 F6,6.0,1
mp-1110965,K2NaBiI6,-1.184178090587931,4,"[Element Bi, Element I, Element K, Element Na]",Cubic,Fm-3m,10,K2 Na1 Bi1 I6,6.0,1
mp-1110935,K2NaCeBr6,-2.04609081258793,4,"[Element Br, Element Ce, Element K, Element Na]",Cubic,Fm-3m,10,K2 Na1 Ce1 Br6,6.0,1
mp-1110895,K2NaCeCl6,-2.29402059975,4,"[Element Ce, Element Cl, Element K, Element Na]",Cubic,Fm-3m,10,K2 Na1 Ce1 Cl6,6.0,1
mp-1112864,K2NaCeF6,-3.459384251587931,4,"[Element Ce, Element F, Element K, Element Na]",Cubic,Fm-3m,10,K2 Na1 Ce1 F6,6.0,1
mp-1110964,K2NaCeI6,-1.567908373587931,4,"[Element Ce, Element I, Element K, Element Na]",Cubic,Fm-3m,10,K2 Na1 Ce1 I6,6.0,1
mp-1111105,K2NaCoF6,-2.7324183085879303,4,"[Element Co, Element F, Element K, Element Na]",Cubic,Fm-3m,10,K2 Na1 Co1 F6,6.0,1
mp-1206266,K2NaCrCl6,-1.958004638587931,4,"[Element Cl, Element Cr, Element K, Element Na]",Cubic,Fm-3m,10,K2 Na1 Cr1 Cl6,6.0,1
mp-554252,K2NaCrF6,-3.116832699587931,4,"[Element Cr, Element F, Element K, Element Na]",Cubic,Fm-3m,10,K2 Na1 Cr1 F6,6.0,1
mp-13797,K2NaCuF6,-2.577095479587931,4,"[Element Cu, Element F, Element K, Element Na]",Cubic,Fm-3m,10,K2 Na1 Cu1 F6,6.0,1
mp-1111648,K2NaDyCl6,-2.316064322749999,4,"[Element Cl, Element Dy, Element K, Element Na]",Cubic,Fm-3m,10,K2 Na1 Dy1 Cl6,6.0,1
mp-1111647,K2NaErCl6,-2.305135810416666,4,"[Element Cl, Element Er, Element K, Element Na]",Cubic,Fm-3m,10,K2 Na1 Er1 Cl6,6.0,1
mp-1111646,K2NaEuCl6,-2.222996841087931,4,"[Element Cl, Element Eu, Element K, Element Na]",Cubic,Fm-3m,10,K2 Na1 Eu1 Cl6,6.0,1
mp-558674,K2NaFeF6,-2.94678372858793,4,"[Element F, Element Fe, Element K, Element Na]",Cubic,Fm-3m,10,K2 Na1 Fe1 F6,6.0,1
mp-1111641,K2NaGaBr6,-1.598100447337931,4,"[Element Br, Element Ga, Element K, Element Na]",Cubic,Fm-3m,10,K2 Na1 Ga1 Br6,6.0,1
mp-1111127,K2NaGaCl6,-1.9272987213379311,4,"[Element Cl, Element Ga, Element K, Element Na]",Cubic,Fm-3m,10,K2 Na1 Ga1 Cl6,6.0,1
mp-1111106,K2NaGaF6,-3.079559579337931,4,"[Element F, Element Ga, Element K, Element Na]",Cubic,Fm-3m,10,K2 Na1 Ga1 F6,6.0,1
mp-1111234,K2NaGdCl6,-2.293374322250001,4,"[Element Cl, Element Gd, Element K, Element Na]",Cubic,Fm-3m,10,K2 Na1 Gd1 Cl6,6.0,1